Protein in water
78874
    1DC     O5'    1   3.145   4.437   7.364  0.0584 -0.5448 -0.6702
    1DC     H5T    2   3.237   4.444   7.389 -0.2585  5.1953  0.2790
    1DC     C5'    3   3.093   4.308   7.342 -0.6751 -0.3083 -0.3486
    1DC    H5'1    4   3.130   4.275   7.245 -0.9913 -1.6207 -0.0554
    1DC    H5'2    5   2.984   4.307   7.333 -0.7062 -2.5496 -0.3564
    1DC     C4'    6   3.136   4.197   7.439  0.2829  0.4126  0.0702
    1DC     H4'    7   3.079   4.107   7.413  1.0356  0.0196 -0.2481
    1DC     O4'    8   3.272   4.163   7.430  0.2038  0.1112  0.0030
    1DC     C1'    9   3.313   4.153   7.565 -0.1196 -0.0730  0.0887
    1DC     H1'   10   3.273   4.057   7.599 -1.8425  0.4110 -0.4897
    1DC      N1   11   3.460   4.154   7.582 -0.1316  0.5698  0.1820
    1DC      C6   12   3.530   4.261   7.629  0.6381  0.4262 -0.6128
    1DC      H6   13   3.480   4.354   7.654  0.3757 -0.0142  0.5683
    1DC      C5   14   3.663   4.255   7.650  0.4800  0.3129  0.4260
    1DC      H5   15   3.717   4.340   7.689  3.0318 -0.7585 -0.5454
    1DC      C4   16   3.728   4.136   7.604  0.0961  0.5521 -0.7909
    1DC      N4   17   3.861   4.128   7.606  0.0734  0.0830 -0.9696
    1DC     H41   18   3.919   4.210   7.621  0.2436 -0.2933  0.6591
    1DC     H42   19   3.901   4.041   7.572 -1.1772 -0.5988 -0.7265
    1DC      N3   20   3.665   4.031   7.549 -0.5046  0.4307  0.1033
    1DC      C2   21   3.529   4.040   7.546 -0.5212  0.2777  0.3420
    1DC      O2   22   3.464   3.941   7.515 -0.4204  0.0388  0.8836
    1DC     C3'   23   3.093   4.237   7.580 -0.1174 -0.0748  0.0884
    1DC     H3'   24   3.032   4.325   7.597  1.0485  0.6536  0.5823
    1DC     C2'   25   3.232   4.259   7.638 -0.1113 -0.0494  0.0644
    1DC    H2'1   26   3.256   4.365   7.625 -1.3522  0.2077 -0.2248
    1DC    H2'2   27   3.228   4.233   7.744 -0.2305 -0.3227 -0.0087
    1DC     O3'   28   3.033   4.122   7.637 -0.0852  0.0777  0.4301
    2DG       P   29   2.872   4.123   7.642 -0.1098  0.0162 -0.2362
    2DG     O1P   30   2.800   4.153   7.517  0.2039  0.0877 -0.4010
    2DG     O2P   31   2.829   4.188   7.768 -0.0413 -0.0992 -0.1528
    2DG     O5'   32   2.844   3.968   7.677 -0.5873  0.0283 -0.5578
    2DG     C5'   33   2.867   3.870   7.579  0.5092 -0.1686 -0.1168
    2DG    H5'1   34   2.947   3.905   7.513 -1.3260 -0.2826 -2.5248
    2DG    H5'2   35   2.775   3.869   7.520 -1.7516  4.2141  2.7778
    2DG     C4'   36   2.911   3.730   7.621  0.4618  0.0775  0.7830
    2DG     H4'   37   2.864   3.653   7.559 -0.8255  0.7943  0.8342
    2DG     O4'   38   3.051   3.725   7.607  0.3595 -0.2655 -0.2853
    2DG     C1'   39   3.103   3.706   7.737 -0.2456 -0.1641 -0.0251
    2DG     H1'   40   3.161   3.614   7.729 -0.2688 -0.1365 -0.5480
    2DG      N9   41   3.210   3.802   7.772 -0.2474 -0.1082 -0.1755
    2DG      C8   42   3.206   3.928   7.824  0.3432 -0.0711 -0.2084
    2DG      H8   43   3.111   3.979   7.835  0.2734 -0.3539  0.5330
    2DG      N7   44   3.319   3.988   7.849 -0.0470  0.4345  0.3847
    2DG      C5   45   3.408   3.885   7.821 -0.1452  0.4636 -0.0326
    2DG      C6   46   3.547   3.872   7.847 -0.1861 -0.1480 -0.1128
    2DG      O6   47   3.619   3.955   7.901 -0.2446 -0.0356 -0.2086
    2DG      N1   48   3.601   3.749   7.813  0.2526  0.0381 -0.0831
    2DG      H1   49   3.701   3.735   7.811  0.6029  2.2499 -1.8789
    2DG      C2   50   3.527   3.642   7.766  0.0443  0.2549 -0.2460
    2DG      N2   51   3.590   3.532   7.722  0.4671  0.2534  0.3420
    2DG     H21   52   3.685   3.525   7.753  1.3719  3.0512 -1.3424
    2DG     H22   53   3.535   3.465   7.669  2.0100 -1.2216  0.5444
    2DG      N3   54   3.397   3.654   7.737 -0.0522  0.3657  0.2238
    2DG      C4   55   3.345   3.775   7.767 -0.1491  0.3050  0.2974
    2DG     C3'   56   2.863   3.686   7.759 -0.3935 -0.2296  0.3967
    2DG     H3'   57   2.782   3.744   7.802 -1.3843  0.4171 -2.1296
    2DG     C2'   58   2.990   3.714   7.839 -0.1583 -0.4114  0.0911
    2DG    H2'1   59   2.986   3.811   7.889  2.3986  0.5586 -1.3793
    2DG    H2'2   60   3.013   3.637   7.912  0.0688 -0.3095  0.1273
    2DG     O3'   61   2.816   3.553   7.763 -0.3792 -0.2545 -0.1888
    3DA       P   62   2.751   3.480   7.891  0.0178 -0.2941 -0.0086
    3DA     O1P   63   2.676   3.364   7.837 -0.6920  0.2401 -0.1854
    3DA     O2P   64   2.686   3.584   7.974  0.6168  0.0758  0.0073
    3DA     O5'   65   2.878   3.436   7.979  0.0317  0.0523  0.1447
    3DA     C5'   66   2.961   3.330   7.938 -0.1422  0.1679 -0.5192
    3DA    H5'1   67   2.982   3.329   7.831  0.6045 -1.3125 -0.3907
    3DA    H5'2   68   2.904   3.237   7.947  1.4207 -0.8685 -0.9348
    3DA     C4'   69   3.095   3.312   8.009 -0.3762  0.0511 -0.0992
    3DA     H4'   70   3.128   3.212   7.981 -0.7953 -0.3628  0.8604
    3DA     O4'   71   3.188   3.410   7.967 -0.3605  0.0690 -0.0231
    3DA     C1'   72   3.252   3.436   8.089 -0.2474  0.2198 -0.1133
    3DA     H1'   73   3.325   3.359   8.115 -1.0758 -0.0442  1.5994
    3DA      N9   74   3.327   3.562   8.100  0.1049  0.0195 -0.1806
    3DA      C8   75   3.279   3.691   8.105  0.4655  0.1848 -0.7858
    3DA      H8   76   3.176   3.719   8.086 -0.6723 -0.2968  3.5600
    3DA      N7   77   3.368   3.779   8.140  0.0733  0.1615  0.3204
    3DA      C5   78   3.485   3.703   8.146  0.0840  0.1424 -0.0997
    3DA      C6   79   3.620   3.732   8.171  0.1677  0.1012 -0.5033
    3DA      N6   80   3.666   3.857   8.187 -0.3312  0.2047  0.1828
    3DA     H61   81   3.607   3.933   8.158  0.5536  1.3096  1.1458
    3DA     H62   82   3.764   3.868   8.209 -0.4655  1.2895  0.2702
    3DA      N1   83   3.713   3.637   8.171  0.0154 -0.0484 -0.4512
    3DA      C2   84   3.675   3.511   8.153 -0.4714 -0.0848  0.7465
    3DA      H2   85   3.750   3.433   8.154  1.1240  1.2648 -1.9577
    3DA      N3   86   3.552   3.470   8.127 -0.2902 -0.0812 -0.1372
    3DA      C4   87   3.460   3.569   8.134 -0.0369  0.1204  0.3673
    3DA     C3'   88   3.074   3.304   8.159  0.1042  0.4190 -0.0087
    3DA     H3'   89   2.968   3.315   8.183 -0.6736 -0.6583 -2.5910
    3DA     C2'   90   3.149   3.430   8.201 -0.2230  0.6333 -0.0692
    3DA    H2'1   91   3.070   3.505   8.196 -0.6988  0.1132 -0.4590
    3DA    H2'2   92   3.189   3.426   8.302 -1.4882 -3.2399  0.4547
    3DA     O3'   93   3.134   3.188   8.212 -0.5052  0.1760  0.1665
    4DC       P   94   3.091   3.125   8.354 -0.4413  0.2582  0.2229
    4DC     O1P   95   3.055   2.982   8.339  0.3634  0.0414  0.3074
    4DC     O2P   96   2.996   3.216   8.421 -0.0346  1.0641 -0.2803
    4DC     O5'   97   3.232   3.131   8.431 -0.4438 -0.0917  0.2599
    4DC     C5'   98   3.332   3.036   8.401 -0.3574  0.2989 -0.7346
    4DC    H5'1   99   3.330   3.028   8.292 -1.5464  0.2568 -0.7228
    4DC    H5'2  100   3.312   2.941   8.451  0.8801 -0.3620 -1.4569
    4DC     C4'  101   3.467   3.083   8.455 -0.3612 -0.3877 -0.1110
    4DC     H4'  102   3.543   3.014   8.419 -0.1230  0.1462 -0.6457
    4DC     O4'  103   3.498   3.208   8.399 -0.4034 -0.1050  0.4902
    4DC     C1'  104   3.590   3.275   8.482  0.0408 -0.1756  0.0627
    4DC     H1'  105   3.686   3.228   8.462 -1.8658 -4.1072 -0.7690
    4DC      N1  106   3.580   3.422   8.475  0.3630 -0.1623 -0.1202
    4DC      C6  107   3.455   3.476   8.462  0.1890 -0.3098  0.8419
    4DC      H6  108   3.372   3.415   8.430 -0.9881  2.1233 -1.1080
    4DC      C5  109   3.439   3.610   8.466  0.2095 -0.2520 -0.5065
    4DC      H5  110   3.346   3.657   8.436 -1.1963 -1.9200  1.0225
    4DC      C4  111   3.552   3.691   8.502 -0.0129 -0.1613 -0.0085
    4DC      N4  112   3.553   3.825   8.496  0.1537 -0.1696 -0.1745
    4DC     H41  113   3.470   3.881   8.501 -0.8848 -1.4444 -1.8597
    4DC     H42  114   3.646   3.863   8.496  0.5871 -1.1882 -0.3503
    4DC      N3  115   3.676   3.642   8.500  0.2883  0.5725  0.4334
    4DC      C2  116   3.688   3.507   8.493 -0.2263  0.5371  0.1815
    4DC      O2  117   3.801   3.463   8.515 -0.4316 -0.2431 -0.2716
    4DC     C3'  118   3.469   3.101   8.607  0.8223  0.5056 -0.2192
    4DC     H3'  119   3.368   3.111   8.647  1.0146  0.2591  0.3255
    4DC     C2'  120   3.543   3.234   8.621  0.4979  0.6154  0.4634
    4DC    H2'1  121   3.467   3.301   8.661 -0.9761  0.1403 -1.3758
    4DC    H2'2  122   3.625   3.236   8.693  1.4038  0.3563 -0.5384
    4DC     O3'  123   3.542   2.998   8.669 -0.0467 -0.2154 -0.3604
    5DT       P  124   3.561   2.985   8.829 -0.3385  0.2567 -0.2853
    5DT     O1P  125   3.572   2.839   8.850 -0.0169  0.3080 -0.0960
    5DT     O2P  126   3.448   3.053   8.896 -0.1113  0.1604  0.1976
    5DT     O5'  127   3.693   3.060   8.883 -0.3048  0.0654 -0.1053
    5DT     C5'  128   3.817   3.036   8.821 -0.1567  0.7176 -0.0615
    5DT    H5'1  129   3.809   3.068   8.717 -0.8361 -2.7230 -1.1760
    5DT    H5'2  130   3.842   2.930   8.816  1.1613  0.9838  0.4531
    5DT     C4'  131   3.933   3.115   8.883 -0.3370  0.2683  0.8662
    5DT     H4'  132   4.026   3.080   8.838 -0.8224 -1.7991  1.3652
    5DT     O4'  133   3.912   3.248   8.841  0.1549  0.0755 -0.0119
    5DT     C1'  134   3.926   3.336   8.950  0.2294  0.1785 -0.1047
    5DT     H1'  135   4.024   3.383   8.958 -0.1633  0.9154  0.5090
    5DT      N1  136   3.830   3.445   8.924  0.2759  0.0616 -0.7773
    5DT      C6  137   3.695   3.422   8.921  0.2608 -0.0058  0.1747
    5DT      H6  138   3.661   3.319   8.919  0.2577  0.0029 -0.3110
    5DT      C5  139   3.604   3.518   8.896  0.0839 -0.2464 -0.1138
    5DT      C7  140   3.457   3.482   8.903 -0.0246  0.2459  0.1554
    5DT     H71  141   3.414   3.521   8.811  0.7375 -1.2011 -0.8447
    5DT     H72  142   3.442   3.375   8.910 -0.4756  0.2455 -0.7213
    5DT     H73  143   3.410   3.528   8.990 -0.9416 -1.6070  0.6875
    5DT      C4  144   3.648   3.653   8.870 -0.3803  0.0360  0.5319
    5DT      O4  145   3.585   3.757   8.858  0.2149  0.3185 -0.1914
    5DT      N3  146   3.786   3.670   8.866 -0.3666 -0.0754  0.4980
    5DT      H3  147   3.825   3.759   8.840  1.0220 -0.3372  1.5505
    5DT      C2  148   3.878   3.572   8.901  0.2414  0.1237 -0.5039
    5DT      O2  149   3.997   3.601   8.902  0.1797  0.3947  0.3046
    5DT     C3'  150   3.953   3.112   9.034  0.1996 -0.2662  0.7843
    5DT     H3'  151   3.899   3.028   9.078  0.2295 -0.7426 -0.0579
    5DT     C2'  152   3.896   3.248   9.071 -0.1274 -0.0789 -0.3791
    5DT    H2'1  153   3.791   3.245   9.100  0.7915 -0.3293  3.4562
    5DT    H2'2  154   3.937   3.288   9.163 -2.6577 -3.3314  2.4092
    5DT     O3'  155   4.090   3.093   9.063  0.3785 -0.0320  0.1227
    6DC       P  156   4.145   3.077   9.214 -0.2089 -0.0074  0.3464
    6DC     O1P  157   4.283   3.023   9.213 -0.0960  0.2810 -0.4325
    6DC     O2P  158   4.046   3.005   9.296 -0.1085 -0.7916 -0.2057
    6DC     O5'  159   4.152   3.225   9.277 -0.3917  0.0322  0.2735
    6DC     C5'  160   4.238   3.320   9.218 -0.6773 -0.0914 -0.3508
    6DC    H5'1  161   4.236   3.310   9.109  1.8396 -0.8487 -0.3719
    6DC    H5'2  162   4.335   3.299   9.262 -0.8391 -1.7365 -0.7158
    6DC     C4'  163   4.198   3.462   9.258 -0.1723  0.0723 -0.4199
    6DC     H4'  164   4.280   3.524   9.224  1.7155 -2.3879 -0.6288
    6DC     O4'  165   4.078   3.499   9.195 -0.5023 -0.4798 -0.1274
    6DC     C1'  166   4.006   3.582   9.283 -0.0279 -0.0116 -0.1758
    6DC     H1'  167   4.073   3.668   9.295  0.9462 -1.0094  2.2466
    6DC      N1  168   3.876   3.640   9.243 -0.0180  0.6854  0.7658
    6DC      C6  169   3.763   3.563   9.243  0.2623  0.2618 -0.2844
    6DC      H6  170   3.773   3.456   9.255 -0.7891  0.2278  0.3816
    6DC      C5  171   3.644   3.625   9.224  0.2207  0.2709  0.0102
    6DC      H5  172   3.561   3.556   9.226  0.6700 -0.2685  0.4913
    6DC      C4  173   3.644   3.768   9.217  0.0659  0.2800  0.1852
    6DC      N4  174   3.527   3.830   9.196 -0.2947 -0.2930  0.4669
    6DC     H41  175   3.439   3.782   9.207 -0.7747 -0.5023 -2.9472
    6DC     H42  176   3.541   3.930   9.188  1.3987 -0.4643  0.9043
    6DC      N3  177   3.754   3.843   9.215 -0.0691  0.4695 -0.2919
    6DC      C2  178   3.872   3.776   9.220 -0.0011  0.6358  0.4672
    6DC      O2  179   3.970   3.849   9.203  0.3185  0.1530  0.1975
    6DC     C3'  180   4.170   3.480   9.407 -0.3886 -0.1441 -0.4345
    6DC     H3'  181   4.187   3.388   9.462 -0.1006 -0.7033 -1.4414
    6DC     C2'  182   4.020   3.510   9.417 -0.3117  0.1328 -0.0680
    6DC    H2'1  183   3.968   3.415   9.412  3.7895 -2.3163 -0.7676
    6DC    H2'2  184   3.987   3.576   9.497  2.0935 -2.3731  3.3057
    6DC     O3'  185   4.233   3.591   9.468  0.1694 -0.3402 -0.6512
    7DT       P  186   4.346   3.567   9.580 -0.2388  0.2353 -0.1090
    7DT     O1P  187   4.476   3.542   9.514 -0.1751 -0.6252  0.3334
    7DT     O2P  188   4.296   3.473   9.683 -0.4996  0.6397  0.1372
    7DT     O5'  189   4.350   3.710   9.655  0.3571  0.2384 -0.1394
    7DT     C5'  190   4.422   3.816   9.597  0.0410  0.2882 -0.4413
    7DT    H5'1  191   4.421   3.799   9.490  0.2358 -3.0502 -0.0128
    7DT    H5'2  192   4.521   3.825   9.641 -0.9799 -0.2963  2.2333
    7DT     C4'  193   4.347   3.945   9.632 -0.1536  0.1268 -0.2585
    7DT     H4'  194   4.415   4.023   9.596 -0.1339 -0.5266 -1.6981
    7DT     O4'  195   4.224   3.949   9.563 -0.3643 -0.3463  0.0902
    7DT     C1'  196   4.133   4.013   9.650 -0.1034  0.3836 -0.1711
    7DT     H1'  197   4.158   4.119   9.649  2.6274 -0.1684  0.8086
    7DT      N1  198   3.996   3.984   9.604  0.0876 -0.3382 -0.2988
    7DT      C6  199   3.944   3.857   9.603 -0.1422 -0.2489 -0.0630
    7DT      H6  200   4.007   3.776   9.638  3.2229  1.6262 -1.2732
    7DT      C5  201   3.813   3.840   9.580 -0.1976 -0.2171  0.2147
    7DT      C7  202   3.756   3.700   9.589  0.4041 -0.4394  0.5709
    7DT     H71  203   3.820   3.636   9.650  2.4674  0.7860 -0.2122
    7DT     H72  204   3.660   3.705   9.641 -0.5464 -1.6085 -1.0154
    7DT     H73  205   3.745   3.659   9.489 -0.4216  0.3539  0.3302
    7DT      C4  206   3.729   3.946   9.530  0.0027  0.1013  0.5522
    7DT      O4  207   3.608   3.948   9.505  0.1723  0.7438 -0.2639
    7DT      N3  208   3.795   4.068   9.519  0.6128 -0.2652  0.1591
    7DT      H3  209   3.739   4.136   9.472 -1.3497 -1.5616  0.5169
    7DT      C2  210   3.925   4.094   9.561  0.6394  0.0821 -0.1376
    7DT      O2  211   3.969   4.209   9.558  0.3502  0.1971 -0.0287
    7DT     C3'  212   4.318   3.954   9.782 -0.4065  0.1647 -0.3085
    7DT     H3'  213   4.358   3.872   9.841 -0.2831 -0.0370 -0.6691
    7DT     C2'  214   4.166   3.960   9.789 -0.4295 -0.3333 -0.3626
    7DT    H2'1  215   4.127   3.859   9.800 -0.4835 -0.3362 -0.5641
    7DT    H2'2  216   4.130   4.024   9.869  3.6187  1.9490 -0.1083
    7DT     O3'  217   4.365   4.081   9.823 -0.7285  0.2516 -0.2063
    8DA       P  218   4.376   4.140   9.972 -0.2877  0.0717 -0.1641
    8DA     O1P  219   4.516   4.178  10.003 -0.2073 -0.2418 -0.1412
    8DA     O2P  220   4.302   4.051  10.064 -0.4008  0.1772 -0.1528
    8DA     O5'  221   4.293   4.277   9.956  0.0610  0.3227  0.1466
    8DA     C5'  222   4.342   4.378   9.871 -0.1291 -0.1220 -0.4972
    8DA    H5'1  223   4.344   4.341   9.768 -0.0693  2.4729 -1.4978
    8DA    H5'2  224   4.446   4.405   9.890 -1.1085  4.4468 -0.6310
    8DA     C4'  225   4.254   4.503   9.872  0.0037 -0.0311  0.0082
    8DA     H4'  226   4.295   4.576   9.802 -0.1336  1.4106  1.3998
    8DA     O4'  227   4.122   4.493   9.825 -0.2021 -0.0105  0.5837
    8DA     C1'  228   4.030   4.487   9.933 -0.1484 -0.1387  0.6214
    8DA     H1'  229   3.974   4.581   9.930 -0.3292 -0.2629 -0.4981
    8DA      N9  230   3.944   4.371   9.906 -0.1436  0.0193 -0.0983
    8DA      C8  231   3.973   4.238   9.923  0.0336  0.0947  0.1932
    8DA      H8  232   4.063   4.195   9.964 -1.3814 -3.2382  0.0981
    8DA      N7  233   3.872   4.158   9.904  0.1911 -0.1138  0.2330
    8DA      C5  234   3.775   4.244   9.854 -0.0709 -0.3355  0.3580
    8DA      C6  235   3.645   4.228   9.803 -0.1617  0.2565  0.4024
    8DA      N6  236   3.577   4.113   9.787  0.8355 -0.2517 -0.2536
    8DA     H61  237   3.621   4.024   9.804 -0.9277 -1.2577 -0.6854
    8DA     H62  238   3.484   4.123   9.750  0.6505 -2.2907 -0.4411
    8DA      N1  239   3.570   4.333   9.766 -0.1616  0.0962 -0.0566
    8DA      C2  240   3.625   4.452   9.777 -0.1024  0.0371  0.3135
    8DA      H2  241   3.557   4.528   9.741 -1.0099  0.1754  2.2447
    8DA      N3  242   3.747   4.484   9.818 -0.0820 -0.0854  0.3499
    8DA      C4  243   3.816   4.374   9.856  0.0286 -0.3454 -0.5733
    8DA     C3'  244   4.234   4.554  10.014  0.2307 -0.0500  0.0472
    8DA     H3'  245   4.320   4.516  10.069  0.8761 -0.2417 -1.0659
    8DA     C2'  246   4.107   4.488  10.065  0.2204  0.2430  0.4094
    8DA    H2'1  247   4.122   4.389  10.108  3.7775  0.0127 -1.0194
    8DA    H2'2  248   4.047   4.551  10.130 -1.4668 -0.0171 -0.8074
    8DA     O3'  249   4.215   4.694  10.022 -0.0644 -0.1039  0.2979
    9DC       P  250   4.238   4.760  10.166  0.2870 -0.0649  0.2232
    9DC     O1P  251   4.282   4.900  10.148 -0.2858  0.0646 -0.1795
    9DC     O2P  252   4.327   4.668  10.241  0.4858 -0.1843 -0.1583
    9DC     O5'  253   4.094   4.770  10.238  0.1632  0.1644 -0.0540
    9DC     C5'  254   4.000   4.866  10.196 -0.0953 -0.0847 -0.0453
    9DC    H5'1  255   4.009   4.880  10.088  1.7448 -0.7864 -0.0260
    9DC    H5'2  256   4.011   4.954  10.260  0.5812 -1.3727  1.6884
    9DC     C4'  257   3.854   4.826  10.216 -0.1819  0.0564 -0.3853
    9DC     H4'  258   3.795   4.904  10.170 -1.3030 -0.4673  0.1226
    9DC     O4'  259   3.822   4.705  10.151 -0.3738 -0.0826 -0.0362
    9DC     C1'  260   3.726   4.643  10.234 -0.4766 -0.1822 -0.2304
    9DC     H1'  261   3.624   4.680  10.220 -0.6585  0.9203  3.2665
    9DC      N1  262   3.719   4.501  10.193 -0.1981 -0.3057  0.1540
    9DC      C6  263   3.794   4.401  10.249 -0.1402 -0.1828  0.2980
    9DC      H6  264   3.881   4.430  10.305  0.6251 -1.4851 -0.1917
    9DC      C5  265   3.754   4.273  10.234  0.6497 -0.3355 -0.5157
    9DC      H5  266   3.817   4.189  10.261  0.2839 -0.1358  1.0289
    9DC      C4  267   3.634   4.246  10.162  0.3441 -0.0736 -0.1051
    9DC      N4  268   3.584   4.121  10.161 -0.4775  0.2435  0.0288
    9DC     H41  269   3.632   4.050  10.216  1.0410  0.7052 -0.6448
    9DC     H42  270   3.495   4.109  10.116 -0.1855  1.1981 -0.8348
    9DC      N3  271   3.568   4.342  10.095 -0.3323 -0.0623  0.5682
    9DC      C2  272   3.604   4.469  10.124 -0.1792  0.0333 -0.0356
    9DC      O2  273   3.538   4.555  10.065 -0.3719 -0.1654 -0.1120
    9DC     C3'  274   3.813   4.820  10.363 -0.4398 -0.2635 -0.4690
    9DC     H3'  275   3.900   4.844  10.424 -0.0323 -2.1492 -0.2272
    9DC     C2'  276   3.765   4.675  10.377 -0.1399 -0.3448 -0.2850
    9DC    H2'1  277   3.846   4.611  10.410  1.0585  0.4258 -1.6430
    9DC    H2'2  278   3.675   4.663  10.437 -0.4375 -0.6445 -0.7862
    9DC     O3'  279   3.715   4.914  10.400 -0.1032 -0.1603  0.1732
   10DG       P  280   3.674   4.961  10.548  0.0245  0.3277  0.0544
   10DG     O1P  281   3.704   5.106  10.554 -0.0482  0.3452  0.0079
   10DG     O2P  282   3.734   4.870  10.648  0.2066  0.3968  0.0073
   10DG     O5'  283   3.514   4.942  10.538  0.1332 -0.3614 -0.3784
   10DG     C5'  284   3.432   5.042  10.483  0.0133 -0.4196 -0.3041
   10DG    H5'1  285   3.466   5.069  10.383 -1.4338  0.6277 -0.5405
   10DG    H5'2  286   3.446   5.129  10.547 -2.4102  1.0769 -1.6198
   10DG     C4'  287   3.285   4.999  10.482 -0.1633  0.1672  0.1170
   10DG     H4'  288   3.221   5.083  10.456  1.5738  0.5877 -3.3498
   10DG     O4'  289   3.264   4.902  10.383 -0.1893  0.4692 -0.1773
   10DG     C1'  290   3.185   4.796  10.433 -0.0879  0.2022 -0.5705
   10DG     H1'  291   3.087   4.784  10.386  0.1537  0.6080 -1.1872
   10DG      N9  292   3.259   4.670  10.418  0.3527  0.4452 -0.4495
   10DG      C8  293   3.395   4.652  10.417  0.2661 -0.2399 -0.4294
   10DG      H8  294   3.464   4.735  10.406 -2.0141  2.1161  1.7650
   10DG      N7  295   3.424   4.525  10.415 -0.0025 -0.3258  0.5056
   10DG      C5  296   3.301   4.460  10.412 -0.2571  0.1896 -0.7902
   10DG      C6  297   3.273   4.322  10.400 -0.1642  0.0202  0.7176
   10DG      O6  298   3.348   4.224  10.397 -0.4949 -0.2181 -0.1680
   10DG      N1  299   3.138   4.291  10.402 -0.0893 -0.3661  0.2682
   10DG      H1  300   3.115   4.192  10.402  1.0928 -0.6709 -1.0093
   10DG      C2  301   3.038   4.386  10.410  0.5095  0.2735  0.2463
   10DG      N2  302   2.909   4.352  10.402  0.4713  0.4852 -0.0132
   10DG     H21  303   2.879   4.256  10.397 -2.4804  1.2425  1.2219
   10DG     H22  304   2.837   4.422  10.392 -0.9443 -1.1730 -2.9157
   10DG      N3  305   3.064   4.517  10.408  0.1093  0.3507  0.0235
   10DG      C4  306   3.196   4.548  10.414  0.0782  0.5879 -0.4666
   10DG     C3'  307   3.239   4.944  10.616 -0.1319 -0.1775 -0.0138
   10DG     H3'  308   3.327   4.920  10.676  1.2206 -0.2864 -1.9512
   10DG     C2'  309   3.163   4.816  10.582 -0.3638  0.1106 -0.5987
   10DG    H2'1  310   3.195   4.731  10.643  2.6251  0.1248 -1.9812
   10DG    H2'2  311   3.056   4.836  10.588 -0.1006  1.3657  0.3176
   10DG     O3'  312   3.157   5.037  10.683  0.3514  0.0784  0.2280
   11DG       P  313   3.140   5.034  10.843  0.0994 -0.0678  0.1998
   11DG     O1P  314   3.044   5.141  10.880 -0.2328 -0.2060 -0.2640
   11DG     O2P  315   3.277   5.044  10.899  0.1920  1.0211 -0.2008
   11DG     O5'  316   3.084   4.888  10.882 -0.5453  0.0968 -0.0995
   11DG     C5'  317   2.956   4.839  10.849 -0.4954  0.0177 -0.1744
   11DG    H5'1  318   2.926   4.878  10.752 -1.1761 -1.4818 -0.6002
   11DG    H5'2  319   2.895   4.882  10.928 -1.0786  1.1433 -1.2021
   11DG     C4'  320   2.943   4.688  10.867  0.5078 -0.0436  0.1071
   11DG     H4'  321   2.838   4.667  10.845 -0.0043  0.0222  2.2795
   11DG     O4'  322   3.013   4.607  10.776 -0.2328 -0.2011 -0.3371
   11DG     C1'  323   3.035   4.480  10.835 -0.2116 -0.0339  0.0206
   11DG     H1'  324   2.946   4.419  10.844 -1.0056  1.3958  2.6690
   11DG      N9  325   3.149   4.410  10.773 -0.3384  0.1410 -0.4173
   11DG      C8  326   3.280   4.448  10.757 -0.3036  0.2164  0.0508
   11DG      H8  327   3.314   4.551  10.760  0.2056  0.0431  2.4435
   11DG      N7  328   3.361   4.349  10.730  0.2367  0.7019 -0.1377
   11DG      C5  329   3.276   4.239  10.717  0.1462  0.7408  0.0987
   11DG      C6  330   3.305   4.105  10.683 -0.4427  0.4661  0.6759
   11DG      O6  331   3.418   4.061  10.661 -0.5856  0.2184  0.4252
   11DG      N1  332   3.197   4.018  10.687  0.0505 -0.1599  0.6111
   11DG      H1  333   3.213   3.920  10.669  0.4352 -0.1626  0.9874
   11DG      C2  334   3.070   4.063  10.718 -0.0585 -0.3759  0.4797
   11DG      N2  335   2.975   3.968  10.726 -0.3942 -0.0653  0.1910
   11DG     H21  336   3.012   3.875  10.725 -0.6757 -0.1825  0.5754
   11DG     H22  337   2.880   3.990  10.752 -2.3639 -2.6791 -3.8001
   11DG      N3  338   3.045   4.188  10.757  0.2595 -0.1411 -0.0613
   11DG      C4  339   3.147   4.276  10.741 -0.1862  0.2412 -0.8577
   11DG     C3'  340   2.983   4.639  11.006  0.1875  0.4193  0.3670
   11DG     H3'  341   3.035   4.720  11.058 -0.5072 -0.0484  1.8321
   11DG     C2'  342   3.073   4.519  10.978 -0.4622  0.0004  0.0765
   11DG    H2'1  343   3.179   4.540  10.986 -0.2062 -1.3886  0.5775
   11DG    H2'2  344   3.049   4.438  11.046 -0.4621  0.5684  0.7587
   11DG     O3'  345   2.871   4.605  11.083 -0.1548 -0.0420 -0.3268
   12DA       P  346   2.887   4.546  11.232  0.0869  0.2894 -0.2220
   12DA     O1P  347   2.779   4.591  11.323  0.5139  0.3455  0.2674
   12DA     O2P  348   3.025   4.565  11.283  0.1721 -0.3103 -0.2229
   12DA     O5'  349   2.866   4.388  11.207 -0.1066  0.1304  0.8920
   12DA     C5'  350   2.746   4.332  11.159  0.3826 -0.1709  0.0014
   12DA    H5'1  351   2.732   4.354  11.053  2.1315 -1.2757 -0.4862
   12DA    H5'2  352   2.664   4.376  11.216  1.2463  0.9538  0.4047
   12DA     C4'  353   2.743   4.180  11.172 -0.2479 -0.1637 -0.0076
   12DA     H4'  354   2.646   4.141  11.143 -0.5913  0.0699  0.7942
   12DA     O4'  355   2.842   4.118  11.093 -0.2672  0.2002 -0.3195
   12DA     C1'  356   2.923   4.034  11.172 -0.5299  0.1188 -0.1372
   12DA     H1'  357   2.876   3.936  11.166 -2.9527  1.1105  1.0276
   12DA      N9  358   3.062   4.038  11.123 -0.3399 -0.8302  0.3012
   12DA      C8  359   3.143   4.147  11.107 -0.1415 -1.0212  0.0094
   12DA      H8  360   3.109   4.247  11.128  0.5976 -0.1313 -2.6453
   12DA      N7  361   3.260   4.116  11.058  0.1988  0.0594  0.1114
   12DA      C5  362   3.251   3.979  11.036 -0.1229  0.1196 -0.1234
   12DA      C6  363   3.338   3.883  10.983 -0.1793  0.1007 -0.1811
   12DA      N6  364   3.459   3.908  10.931 -0.0253  0.1691  0.2016
   12DA     H61  365   3.503   3.999  10.935  0.4632 -0.0486 -0.1081
   12DA     H62  366   3.506   3.823  10.903 -0.7618 -0.2513  0.2007
   12DA      N1  367   3.316   3.751  10.992  0.4470 -0.0021 -0.0956
   12DA      C2  368   3.191   3.721  11.022  0.4319  0.3471  0.1898
   12DA      H2  369   3.167   3.616  11.014 -1.3069  0.7206  0.1283
   12DA      N3  370   3.092   3.799  11.064 -0.0281 -0.3870  0.4950
   12DA      C4  371   3.128   3.930  11.071  0.0898 -0.3867 -0.0830
   12DA     C3'  372   2.766   4.143  11.318 -0.0309 -0.0088 -0.0015
   12DA     H3'  373   2.753   4.232  11.380  2.1923  1.9562 -2.1449
   12DA     C2'  374   2.908   4.088  11.315 -0.2654 -0.6375  0.1812
   12DA    H2'1  375   2.988   4.161  11.329 -0.8303 -0.1045  0.6668
   12DA    H2'2  376   2.922   4.019  11.398  1.6832  0.0899  0.5222
   12DA     O3'  377   2.666   4.048  11.348  0.3284 -0.3933 -0.0073
   13DA       P  378   2.646   3.989  11.496 -0.2880 -0.3415 -0.0661
   13DA     O1P  379   2.523   3.908  11.489 -0.4008 -0.1732 -0.0388
   13DA     O2P  380   2.657   4.103  11.590  0.0708  0.1171 -0.6574
   13DA     O5'  381   2.761   3.884  11.537 -0.3831 -0.2541  0.4296
   13DA     C5'  382   2.760   3.746  11.513 -0.3773 -0.3015  0.6911
   13DA    H5'1  383   2.712   3.719  11.419 -3.9522 -2.2874  2.8564
   13DA    H5'2  384   2.688   3.696  11.578 -1.8590 -0.6209 -1.0973
   13DA     C4'  385   2.891   3.669  11.531 -0.3750 -0.6036 -0.4913
   13DA     H4'  386   2.870   3.562  11.523  1.5699 -1.0328 -0.2099
   13DA     O4'  387   2.989   3.708  11.438  0.0836  0.0702  0.2553
   13DA     C1'  388   3.109   3.657  11.490  0.2369 -0.0455 -0.2008
   13DA     H1'  389   3.106   3.548  11.492 -0.7383 -0.0199  0.5411
   13DA      N9  390   3.226   3.719  11.424  0.3459  0.1723  0.1910
   13DA      C8  391   3.248   3.852  11.399 -0.1307  0.0960 -0.6614
   13DA      H8  392   3.175   3.927  11.427  1.0328  0.6024  1.1616
   13DA      N7  393   3.361   3.876  11.339  0.0341  0.0582 -0.3652
   13DA      C5  394   3.419   3.750  11.328  0.3417  0.1451  0.2210
   13DA      C6  395   3.541   3.706  11.274 -0.0607 -0.7872  0.0631
   13DA      N6  396   3.642   3.783  11.232 -0.5750  0.0391  0.3322
   13DA     H61  397   3.637   3.884  11.232  1.8448  0.2187 -0.2189
   13DA     H62  398   3.721   3.735  11.192 -1.8238 -0.9508 -1.0720
   13DA      N1  399   3.563   3.575  11.258  0.4047 -0.7428  0.3382
   13DA      C2  400   3.469   3.490  11.296 -0.1719 -0.4058 -0.3295
   13DA      H2  401   3.498   3.386  11.288  0.6770 -0.1848 -0.1408
   13DA      N3  402   3.355   3.520  11.356 -0.0569  0.1869 -0.3974
   13DA      C4  403   3.330   3.653  11.364  0.0003  0.2006 -0.4524
   13DA     C3'  404   2.949   3.688  11.671 -0.2550  0.4651 -0.6772
   13DA     H3'  405   2.914   3.784  11.709  1.2078  1.0168 -0.6568
   13DA     C2'  406   3.098   3.691  11.639 -0.0909 -0.6754 -0.0785
   13DA    H2'1  407   3.142   3.790  11.650  1.6384 -1.2211 -1.5893
   13DA    H2'2  408   3.148   3.624  11.708 -1.4585 -0.5141  1.1045
   13DA     O3'  409   2.902   3.581  11.750  0.7457  0.4076 -0.1441
   14DG       P  410   2.955   3.536  11.895 -0.1979  0.2445  0.1551
   14DG     O1P  411   2.858   3.447  11.963  0.3358 -0.6053 -0.1766
   14DG     O2P  412   3.000   3.659  11.964  0.1923  0.0768  0.1984
   14DG     O5'  413   3.089   3.455  11.859 -0.4056  0.0137 -0.1031
   14DG     C5'  414   3.071   3.329  11.798  0.3783 -0.0278 -0.2590
   14DG    H5'1  415   3.037   3.348  11.696  0.3619  0.5921 -0.1447
   14DG    H5'2  416   2.997   3.268  11.850  0.3719  0.0021 -0.2323
   14DG     C4'  417   3.202   3.252  11.788  0.1764 -0.4432  0.2416
   14DG     H4'  418   3.173   3.150  11.762  1.0540 -0.8644  0.8573
   14DG     O4'  419   3.279   3.312  11.685  0.3733 -0.4076  0.4094
   14DG     C1'  420   3.413   3.325  11.726  0.5412 -0.4394 -0.1219
   14DG     H1'  421   3.475   3.238  11.704  0.1973 -0.6423 -0.2780
   14DG      N9  422   3.475   3.450  11.679  0.4320 -0.1625  0.4572
   14DG      C8  423   3.430   3.577  11.709  0.0268 -0.2406  0.1957
   14DG      H8  424   3.334   3.593  11.754 -1.2319 -0.2350 -2.3246
   14DG      N7  425   3.514   3.671  11.675 -0.5696  0.4879  0.7249
   14DG      C5  426   3.619   3.607  11.610 -1.0771  0.1479  0.2371
   14DG      C6  427   3.743   3.652  11.558 -0.9442  0.3156  0.6967
   14DG      O6  428   3.785   3.768  11.555 -0.9814  0.3155 -0.0898
   14DG      N1  429   3.825   3.552  11.509 -0.8705  0.5953  0.2365
   14DG      H1  430   3.918   3.572  11.477 -1.2974  2.9246  0.2839
   14DG      C2  431   3.796   3.417  11.521 -0.1284  0.4212  0.1431
   14DG      N2  432   3.879   3.328  11.466 -0.1019  0.0927  0.7167
   14DG     H21  433   3.949   3.369  11.406  0.1771 -0.1327  0.8810
   14DG     H22  434   3.871   3.227  11.475 -0.9836 -0.0652 -1.3164
   14DG      N3  435   3.677   3.376  11.568 -0.2678 -0.0186 -0.5796
   14DG      C4  436   3.598   3.472  11.623  0.4964 -0.0702  0.6379
   14DG     C3'  437   3.277   3.249  11.921 -0.2684 -0.3717  0.4934
   14DG     H3'  438   3.234   3.307  12.003 -0.7792  3.5345 -2.2754
   14DG     C2'  439   3.403   3.323  11.879 -0.0184 -1.1550 -0.1652
   14DG    H2'1  440   3.395   3.426  11.914 -0.3187 -0.4565 -2.1592
   14DG    H2'2  441   3.489   3.275  11.925  0.8087 -1.2484 -1.7454
   14DG     O3'  442   3.297   3.113  11.955  0.3019 -0.5325 -0.4415
   15DG       P  443   3.376   3.063  12.086 -0.1628 -0.0341  0.0354
   15DG     O1P  444   3.329   2.925  12.108 -0.0955  0.0547  0.7627
   15DG     O2P  445   3.360   3.164  12.193  0.0463  0.0414 -0.0034
   15DG     O5'  446   3.528   3.050  12.034 -0.1101  0.0440  0.1679
   15DG     C5'  447   3.572   2.972  11.925 -0.0082  0.0389  0.2129
   15DG    H5'1  448   3.487   2.975  11.856  0.2495 -1.3775 -0.1973
   15DG    H5'2  449   3.584   2.871  11.965  1.9757  0.2769  0.3123
   15DG     C4'  450   3.706   3.026  11.875  0.1040 -0.2339  0.2170
   15DG     H4'  451   3.747   2.955  11.803  0.6458 -1.5579  1.7499
   15DG     O4'  452   3.704   3.161  11.835  0.4698 -0.3390 -0.1540
   15DG     C1'  453   3.839   3.202  11.833  0.4182 -0.1451  0.3851
   15DG     H1'  454   3.878   3.184  11.733  0.8264  1.3116  0.2680
   15DG      N9  455   3.853   3.348  11.840 -0.1414 -0.0416 -0.5279
   15DG      C8  456   3.775   3.435  11.912  0.0917 -0.1211 -0.1782
   15DG      H8  457   3.689   3.386  11.955 -0.7989 -0.0243 -1.7743
   15DG      N7  458   3.813   3.560  11.904  0.2223 -0.1572 -0.1253
   15DG      C5  459   3.925   3.554  11.821 -0.0090 -0.1926 -0.4376
   15DG      C6  460   4.019   3.652  11.783  0.4533 -0.3690  0.2505
   15DG      O6  461   4.014   3.772  11.813 -0.8181 -0.4587  0.4204
   15DG      N1  462   4.135   3.607  11.722 -0.0202 -0.3261 -0.6981
   15DG      H1  463   4.198   3.677  11.686 -0.2537 -0.1876 -0.8330
   15DG      C2  464   4.154   3.471  11.703 -0.1374 -0.4167 -0.1933
   15DG      N2  465   4.273   3.434  11.654 -0.3590 -0.7790 -0.4643
   15DG     H21  466   4.345   3.502  11.634  0.2781 -1.3620 -0.1863
   15DG     H22  467   4.299   3.337  11.647 -0.8327 -0.9961  0.5883
   15DG      N3  468   4.071   3.373  11.738 -0.0288 -0.5078 -0.1915
   15DG      C4  469   3.959   3.424  11.796  0.1993 -0.2197 -0.0087
   15DG     C3'  470   3.812   3.016  11.984 -0.0449  0.4000  0.4221
   15DG     H3'  471   3.767   3.034  12.081 -0.4646  0.4553  0.2162
   15DG     C2'  472   3.911   3.125  11.943  0.5109 -0.1334  0.3316
   15DG    H2'1  473   3.943   3.192  12.023  0.2284  1.5409 -0.9102
   15DG    H2'2  474   3.999   3.080  11.896  1.1437  0.8711  0.5307
   15DG     O3'  475   3.879   2.892  11.980  0.3220  0.6162 -0.4863
   16DG       P  476   3.966   2.840  12.105 -0.2611  0.0835 -0.2957
   16DG     O1P  477   4.001   2.697  12.088  0.0355  0.0780  0.3459
   16DG     O2P  478   3.907   2.878  12.236  0.5065  0.6317 -0.0996
   16DG     O5'  479   4.103   2.922  12.088 -0.2390  0.0450 -0.3021
   16DG     C5'  480   4.189   2.888  11.981  0.1564 -0.1321  0.0668
   16DG    H5'1  481   4.127   2.880  11.891 -1.5381 -0.2968  1.1953
   16DG    H5'2  482   4.219   2.784  11.991  1.0600 -0.1132 -1.9425
   16DG     C4'  483   4.310   2.973  11.945  0.0409  0.0203  0.0352
   16DG     H4'  484   4.352   2.926  11.856 -2.9107 -2.3276 -0.2615
   16DG     O4'  485   4.269   3.104  11.915 -0.0686  0.0051  0.1174
   16DG     C1'  486   4.371   3.190  11.962 -0.0750 -0.0616  0.2505
   16DG     H1'  487   4.448   3.199  11.886  0.1773 -0.9498  0.3839
   16DG      N9  488   4.308   3.320  11.991 -0.2321 -0.1746  0.4275
   16DG      C8  489   4.192   3.352  12.056 -0.3624 -0.0062  0.1120
   16DG      H8  490   4.115   3.286  12.092  0.5871 -1.1605  0.0676
   16DG      N7  491   4.177   3.481  12.069 -0.4897  0.0536 -0.5903
   16DG      C5  492   4.292   3.535  12.012  0.0665 -0.3537  0.1213
   16DG      C6  493   4.326   3.668  11.975  0.0804 -0.4345 -0.1622
   16DG      O6  494   4.251   3.766  11.983  0.4300 -0.2341  0.8664
   16DG      N1  495   4.453   3.685  11.923  0.0901 -0.4618 -0.1463
   16DG      H1  496   4.481   3.778  11.892  0.9959 -0.5086  0.4812
   16DG      C2  497   4.532   3.576  11.892  0.2399 -0.3322 -0.2253
   16DG      N2  498   4.658   3.596  11.850  0.1755  0.8037  0.0877
   16DG     H21  499   4.688   3.692  11.858  1.8805  0.2643  0.5847
   16DG     H22  500   4.721   3.518  11.839 -2.2183 -1.3764  0.9085
   16DG      N3  501   4.492   3.448  11.898  0.1830 -0.2882  0.4467
   16DG      C4  502   4.373   3.438  11.961  0.0136 -0.3907  0.1078
   16DG     C3'  503   4.408   2.982  12.062  0.0862 -0.2980  0.0234
   16DG     H3'  504   4.371   2.931  12.151  1.3102  0.7754  1.1960
   16DG     C2'  505   4.423   3.130  12.093 -0.0905 -0.3057  0.1471
   16DG    H2'1  506   4.362   3.143  12.183  1.3646 -3.1955  1.6523
   16DG    H2'2  507   4.528   3.156  12.103  0.1606 -1.8856  2.1334
   16DG     O3'  508   4.532   2.923  12.031  0.0281 -0.4883  0.1547
   17DC       P  509   4.633   2.878  12.148  0.0127  0.2413  0.4525
   17DC     O1P  510   4.744   2.794  12.097 -0.6715 -0.3077 -0.1476
   17DC     O2P  511   4.556   2.822  12.261 -0.1701 -0.4057  0.0137
   17DC     O5'  512   4.705   3.015  12.192  0.3733  0.2204 -0.0689
   17DC     C5'  513   4.807   3.070  12.112  0.5124  0.1346  0.0494
   17DC    H5'1  514   4.756   3.093  12.018 -0.6988 -0.3617  0.5670
   17DC    H5'2  515   4.889   3.001  12.093  1.5162  1.3695 -0.2444
   17DC     C4'  516   4.863   3.201  12.167  0.0404  0.2047  0.3711
   17DC     H4'  517   4.956   3.227  12.116  0.3875  1.5960  1.6259
   17DC     O4'  518   4.768   3.304  12.155 -0.1693 -0.0444 -0.1643
   17DC     C1'  519   4.757   3.370  12.279  0.4034 -0.0505 -0.1072
   17DC     H1'  520   4.844   3.435  12.293  0.2853  0.0375  0.2476
   17DC      N1  521   4.633   3.450  12.278  0.1057 -0.5069 -0.0508
   17DC      C6  522   4.520   3.412  12.345 -0.1307  0.2107 -0.0313
   17DC      H6  523   4.520   3.313  12.386 -0.5364  0.8407  1.5305
   17DC      C5  524   4.415   3.494  12.363 -0.1894  0.1695 -0.1821
   17DC      H5  525   4.321   3.458  12.404  1.1911 -1.2416  2.0179
   17DC      C4  526   4.426   3.624  12.305 -0.4272  0.0180 -0.5664
   17DC      N4  527   4.331   3.718  12.312 -0.0230  0.3945 -0.0882
   17DC     H41  528   4.241   3.692  12.349 -0.6983  0.0073 -1.8964
   17DC     H42  529   4.366   3.810  12.289 -0.2118  0.1862 -1.2827
   17DC      N3  530   4.536   3.665  12.242 -0.0668 -0.3271 -0.1623
   17DC      C2  531   4.643   3.581  12.232  0.1292 -0.2006  0.8144
   17DC      O2  532   4.746   3.634  12.191 -0.3852  0.2119  0.0261
   17DC     C3'  533   4.893   3.186  12.316 -0.1979  0.3724  0.4357
   17DC     H3'  534   4.898   3.081  12.345 -0.4346  0.5495  1.1454
   17DC     C2'  535   4.774   3.257  12.380  0.0210  0.5492  0.6451
   17DC    H2'1  536   4.696   3.181  12.370  2.8655 -2.4397 -0.7622
   17DC    H2'2  537   4.798   3.300  12.477 -0.1873 -0.1045  0.9910
   17DC     O3'  538   5.009   3.251  12.363  0.2683 -0.1664  0.0441
   18DA       P  539   5.136   3.176  12.428  0.2853 -0.0714  0.1198
   18DA     O1P  540   5.212   3.108  12.321  0.2115  0.0467 -0.0082
   18DA     O2P  541   5.080   3.095  12.538  0.5049 -0.0457  0.2493
   18DA     O5'  542   5.217   3.299  12.491  0.0660  0.0559  0.1570
   18DA     C5'  543   5.315   3.373  12.420 -0.2938 -0.2414 -0.6611
   18DA    H5'1  544   5.283   3.358  12.317 -0.7780 -0.3583 -0.4983
   18DA    H5'2  545   5.413   3.333  12.446 -0.5569  0.9259  2.6031
   18DA     C4'  546   5.311   3.524  12.441 -0.7057 -0.3281 -0.0890
   18DA     H4'  547   5.383   3.576  12.378 -0.7270  1.7580  1.4906
   18DA     O4'  548   5.179   3.565  12.413 -0.4702  0.4462 -0.0735
   18DA     C1'  549   5.149   3.667  12.506 -0.3203  0.0661  0.3979
   18DA     H1'  550   5.184   3.768  12.480  0.0501 -0.1764 -0.0624
   18DA      N9  551   5.002   3.663  12.515 -0.3090  0.0935  0.5911
   18DA      C8  552   4.928   3.551  12.544 -0.3522 -0.0280  0.0267
   18DA      H8  553   4.970   3.452  12.552  0.4694  0.3810  1.1481
   18DA      N7  554   4.801   3.576  12.560 -0.3498  0.1595 -0.2451
   18DA      C5  555   4.794   3.713  12.537 -0.0102  0.3209  0.5836
   18DA      C6  556   4.692   3.810  12.539 -0.3213 -0.0001  0.3758
   18DA      N6  557   4.562   3.786  12.557 -0.5409  0.5214 -0.4225
   18DA     H61  558   4.544   3.688  12.575 -1.1756  0.1746 -2.6365
   18DA     H62  559   4.498   3.864  12.558 -0.1538  0.8790  1.6047
   18DA      N1  560   4.721   3.941  12.537  0.2067 -0.1201 -0.9660
   18DA      C2  561   4.848   3.978  12.532  0.1834  0.0643 -0.2703
   18DA      H2  562   4.863   4.084  12.520  1.8173 -0.1786 -0.5423
   18DA      N3  563   4.954   3.901  12.514  0.3999  0.2615  0.1514
   18DA      C4  564   4.918   3.771  12.526 -0.0987  0.3554 -0.2964
   18DA     C3'  565   5.348   3.567  12.583 -0.0453  0.0829 -0.3864
   18DA     H3'  566   5.390   3.483  12.638  0.5599  1.0391  0.6563
   18DA     C2'  567   5.219   3.629  12.635  0.3035  0.3601  0.1536
   18DA    H2'1  568   5.162   3.545  12.677 -0.1447 -0.1161 -1.3616
   18DA    H2'2  569   5.227   3.715  12.702  0.5660 -0.1474  0.7933
   18DA     O3'  570   5.447   3.668  12.572  0.1809 -0.0965  0.0015
   19DT       P  571   5.533   3.720  12.698 -0.0770 -0.0221  0.1478
   19DT     O1P  572   5.660   3.771  12.641 -0.3096  0.0765 -0.2871
   19DT     O2P  573   5.536   3.615  12.802 -0.4861  0.4489  0.6387
   19DT     O5'  574   5.449   3.842  12.762 -0.8793 -0.2388 -0.4721
   19DT     C5'  575   5.455   3.978  12.724 -0.2295 -0.0705  0.2023
   19DT    H5'1  576   5.442   3.985  12.616  0.8662  0.0928  0.0742
   19DT    H5'2  577   5.555   4.017  12.741  0.1017  0.7831 -3.0182
   19DT     C4'  578   5.348   4.062  12.793  0.0862  0.2706  0.2743
   19DT     H4'  579   5.360   4.160  12.747 -1.1232  0.7479  0.9323
   19DT     O4'  580   5.223   4.008  12.757  0.4034  0.0305 -0.4866
   19DT     C1'  581   5.145   4.005  12.875  0.3428 -0.2924 -0.5325
   19DT     H1'  582   5.107   4.105  12.897  2.2233 -0.0789  2.3204
   19DT      N1  583   5.025   3.919  12.872  0.0419  0.1297 -0.6989
   19DT      C6  584   5.032   3.785  12.893 -0.3859  0.1740 -0.2478
   19DT      H6  585   5.128   3.735  12.894  0.1911  1.2096 -1.0343
   19DT      C5  586   4.918   3.713  12.897 -0.1834 -0.1440 -0.0948
   19DT      C7  587   4.913   3.564  12.922 -0.2159 -0.3074 -1.0272
   19DT     H71  588   4.852   3.555  13.013 -3.3911  0.0343 -2.9604
   19DT     H72  589   4.884   3.511  12.832  1.2398  1.1788 -2.4370
   19DT     H73  590   5.007   3.520  12.953 -1.9072 -4.3677 -1.0967
   19DT      C4  591   4.790   3.779  12.888  0.0511  0.3936  0.4393
   19DT      O4  592   4.680   3.725  12.904 -0.1144  0.3973 -0.6649
   19DT      N3  593   4.790   3.917  12.872 -0.4487  0.3413 -0.0475
   19DT      H3  594   4.703   3.968  12.864 -0.1558  1.2371  1.8368
   19DT      C2  595   4.907   3.990  12.858 -0.1705 -0.1180 -0.1637
   19DT      O2  596   4.896   4.112  12.849 -0.1355 -0.0845  0.1943
   19DT     C3'  597   5.358   4.071  12.945  0.5796  0.1522  0.2498
   19DT     H3'  598   5.457   4.034  12.971  1.2564  1.5197 -0.2728
   19DT     C2'  599   5.243   3.980  12.989 -0.0158  0.7909  0.0271
   19DT    H2'1  600   5.270   3.874  12.991  1.6032  1.1594 -0.2409
   19DT    H2'2  601   5.198   4.019  13.080  2.0474  0.6403  1.1725
   19DT     O3'  602   5.322   4.198  12.992  0.1020  0.3335 -0.5915
   20DC       P  603   5.373   4.242  13.138 -0.5008 -0.1468 -0.2319
   20DC     O1P  604   5.475   4.349  13.137 -0.4050 -0.2353  0.0341
   20DC     O2P  605   5.393   4.118  13.216  0.3349  0.2931  0.2678
   20DC     O5'  606   5.231   4.302  13.187 -0.5785 -0.2055 -0.3833
   20DC     C5'  607   5.186   4.431  13.152 -0.0492  0.0682 -0.0782
   20DC    H5'1  608   5.159   4.438  13.047 -1.3878  0.8900  0.2991
   20DC    H5'2  609   5.259   4.503  13.188  0.9773 -0.9652 -0.0182
   20DC     C4'  610   5.059   4.464  13.230  0.0363  0.3281 -0.0484
   20DC     H4'  611   5.035   4.568  13.206  0.6565  0.5659  0.3523
   20DC     O4'  612   4.959   4.371  13.194  0.4838 -0.3178  0.3433
   20DC     C1'  613   4.896   4.314  13.306  0.1224  0.2241  0.4184
   20DC     H1'  614   4.822   4.384  13.346 -0.1773  0.5215 -0.6145
   20DC      N1  615   4.828   4.186  13.279  0.4971 -0.0858  0.9408
   20DC      C6  616   4.908   4.079  13.252  0.8564  0.3314  0.3226
   20DC      H6  617   5.010   4.107  13.230  0.5097 -0.0447 -2.0317
   20DC      C5  618   4.850   3.957  13.244 -0.0687  0.7854  0.0686
   20DC      H5  619   4.917   3.873  13.241  1.0189  1.6436 -0.2662
   20DC      C4  620   4.708   3.945  13.264  0.0885 -0.3805  0.5607
   20DC      N4  621   4.649   3.825  13.271 -0.1877 -0.2646  0.2354
   20DC     H41  622   4.703   3.740  13.278  1.4854  0.7687  0.4519
   20DC     H42  623   4.548   3.824  13.280 -0.3888  1.9843 -0.9108
   20DC      N3  624   4.632   4.055  13.269  0.4318 -0.1139  0.0625
   20DC      C2  625   4.690   4.177  13.278  0.5059 -0.1753  0.4234
   20DC      O2  626   4.622   4.279  13.274 -0.3387 -0.7425  0.0901
   20DC     C3'  627   5.073   4.449  13.381  0.3700  0.5030 -0.0603
   20DC     H3'  628   5.178   4.460  13.408  0.8883 -1.9001 -0.8631
   20DC     C2'  629   5.007   4.314  13.411  0.3940  0.5329  0.1313
   20DC    H2'1  630   5.084   4.240  13.392  2.3180  2.3446  0.4200
   20DC    H2'2  631   4.966   4.312  13.512 -3.0618 -2.7492 -1.1003
   20DC     O3'  632   5.000   4.559  13.433 -0.0625  0.1462  0.1011
   21DT       P  633   4.992   4.593  13.590  0.2118 -0.0695  0.1647
   21DT     O1P  634   4.982   4.739  13.612  0.8624 -0.0322  0.2322
   21DT     O2P  635   5.090   4.505  13.656  0.2495 -0.1011  0.0668
   21DT     O5'  636   4.848   4.526  13.618  0.3084 -0.2738  0.1731
   21DT     C5'  637   4.731   4.595  13.579  0.2690 -0.6941 -0.4617
   21DT    H5'1  638   4.718   4.597  13.471 -1.8106 -2.2739 -0.3018
   21DT    H5'2  639   4.734   4.698  13.614  1.4280  0.1829 -2.8849
   21DT     C4'  640   4.605   4.527  13.632  0.0489  0.0484 -0.0180
   21DT     H4'  641   4.523   4.594  13.609  1.2814  1.2388 -1.1133
   21DT     O4'  642   4.580   4.407  13.562 -0.2224  0.3628 -0.4639
   21DT     C1'  643   4.526   4.323  13.662  0.4502  0.2099 -0.2253
   21DT     H1'  644   4.421   4.349  13.677  1.0901  1.8523  1.9341
   21DT      N1  645   4.538   4.179  13.631 -0.2619  0.1037 -0.0246
   21DT      C6  646   4.662   4.126  13.611 -0.4003 -0.1059 -0.3484
   21DT      H6  647   4.752   4.186  13.618 -0.0914 -0.5182 -0.7906
   21DT      C5  648   4.685   3.994  13.597 -0.1851 -0.1148  0.0509
   21DT      C7  649   4.827   3.942  13.606 -0.2590 -0.3353 -0.0266
   21DT     H71  650   4.847   3.880  13.519 -4.0628 -1.6749 -0.1295
   21DT     H72  651   4.898   4.025  13.604  0.0174 -0.5828 -0.5754
   21DT     H73  652   4.847   3.873  13.688  1.9147  2.0164  1.6031
   21DT      C4  653   4.576   3.900  13.590 -0.2146 -0.0405 -0.5373
   21DT      O4  654   4.583   3.778  13.578  0.0554 -0.0362 -0.4291
   21DT      N3  655   4.453   3.960  13.613 -0.1050 -0.0010 -0.0600
   21DT      H3  656   4.375   3.900  13.633  0.3926 -0.6071  0.0946
   21DT      C2  657   4.431   4.093  13.646 -0.2556  0.0395 -0.3213
   21DT      O2  658   4.321   4.124  13.693 -0.0280  0.1379  0.1478
   21DT     C3'  659   4.608   4.509  13.784  0.2789  0.4967  0.0323
   21DT     H3'  660   4.708   4.528  13.824  0.6200  2.1984 -1.5013
   21DT     C2'  661   4.595   4.357  13.794  0.2635  0.4818 -0.1981
   21DT    H2'1  662   4.690   4.305  13.797  0.5479  0.9024 -1.3315
   21DT    H2'2  663   4.537   4.334  13.884 -2.4025 -1.6513 -2.2972
   21DT     O3'  664   4.515   4.583  13.859  0.2577  0.6594 -0.1528
   22DG       P  665   4.492   4.579  14.019  0.0150 -0.3465 -0.2076
   22DG     O1P  666   4.427   4.703  14.066 -0.1802 -0.5603  0.0887
   22DG     O2P  667   4.609   4.522  14.089 -0.0953 -0.4539 -0.1101
   22DG     O5'  668   4.385   4.458  14.024 -0.2392 -0.0984  0.3445
   22DG     C5'  669   4.253   4.473  13.977 -0.2551  0.3180  0.5124
   22DG    H5'1  670   4.250   4.474  13.868 -0.5514  2.3374  0.5088
   22DG    H5'2  671   4.219   4.571  14.009  0.5225  1.0430 -0.8026
   22DG     C4'  672   4.160   4.361  14.023  0.3399 -0.1826  0.5141
   22DG     H4'  673   4.061   4.391  13.989  0.1083 -0.6779  0.7380
   22DG     O4'  674   4.188   4.243  13.952  0.5759  0.0988  0.1333
   22DG     C1'  675   4.193   4.142  14.051 -0.2200  0.1818  0.2674
   22DG     H1'  676   4.097   4.098  14.075 -1.0772  1.2059 -1.1302
   22DG      N9  677   4.283   4.037  14.001 -0.5720 -0.0750  0.1712
   22DG      C8  678   4.420   4.032  13.991 -0.5872  0.0934 -0.1152
   22DG      H8  679   4.482   4.118  14.011 -1.2693  0.6318 -0.2810
   22DG      N7  680   4.465   3.921  13.940 -0.2511  0.3005 -0.2783
   22DG      C5  681   4.353   3.840  13.924 -0.1550  0.1574 -0.2279
   22DG      C6  682   4.335   3.706  13.879  0.2314  0.1080 -0.2463
   22DG      O6  683   4.413   3.630  13.824  0.0194 -0.6658  0.5052
   22DG      N1  684   4.206   3.660  13.901  0.2476 -0.0079 -0.3912
   22DG      H1  685   4.188   3.561  13.894  1.6312 -0.1681 -2.6202
   22DG      C2  686   4.105   3.736  13.955  0.1295  0.0884 -0.7416
   22DG      N2  687   3.980   3.687  13.950  0.1903 -0.2382  0.5623
   22DG     H21  688   3.972   3.592  13.917 -1.0104 -0.7886  2.2658
   22DG     H22  689   3.904   3.740  13.990 -0.9504 -0.1856 -1.5555
   22DG      N3  690   4.117   3.865  13.989 -0.2201 -0.1177  0.2089
   22DG      C4  691   4.244   3.908  13.971 -0.2945 -0.0710 -0.2147
   22DG     C3'  692   4.169   4.340  14.174  0.0278  0.0042  0.5608
   22DG     H3'  693   4.235   4.410  14.225  1.7668 -2.3045  1.6645
   22DG     C2'  694   4.237   4.203  14.184  0.3936  0.1465  0.0862
   22DG    H2'1  695   4.343   4.227  14.188  0.1174  1.2644  1.2579
   22DG    H2'2  696   4.209   4.133  14.262  2.1472  1.0241  1.5622
   22DG     O3'  697   4.043   4.355  14.233 -0.3287 -0.4162 -0.0736
   23DC       P  698   4.015   4.341  14.391  0.4507  0.3922  0.1455
   23DC     O1P  699   3.881   4.393  14.427  0.3927  0.4291 -0.1183
   23DC     O2P  700   4.128   4.399  14.467  0.7902  0.5221 -0.4568
   23DC     O5'  701   4.015   4.182  14.420  0.3715  0.2486 -0.6125
   23DC     C5'  702   3.907   4.110  14.367  0.2863  0.0012 -0.1121
   23DC    H5'1  703   3.895   4.123  14.259 -1.4153 -0.4570 -0.0069
   23DC    H5'2  704   3.818   4.157  14.407  0.7737 -0.7204  1.9081
   23DC     C4'  705   3.920   3.960  14.394  0.5437  0.0726  0.1556
   23DC     H4'  706   3.824   3.917  14.366  0.5157 -0.3234  0.8371
   23DC     O4'  707   4.015   3.896  14.312  0.0112 -0.4072 -0.0937
   23DC     C1'  708   4.056   3.780  14.380  0.4999 -0.0313  0.2684
   23DC     H1'  709   3.978   3.704  14.379  2.9161 -2.6918  0.1690
   23DC      N1  710   4.185   3.737  14.323  0.2909  0.1830 -0.3658
   23DC      C6  711   4.289   3.824  14.311  0.2614  0.1688 -0.7432
   23DC      H6  712   4.272   3.924  14.346  1.4058  0.2810 -0.4850
   23DC      C5  713   4.409   3.777  14.271  0.3484 -0.1616 -0.0953
   23DC      H5  714   4.499   3.837  14.270  1.8329 -2.2380  0.3762
   23DC      C4  715   4.421   3.639  14.235  0.0890 -0.1205 -0.3397
   23DC      N4  716   4.535   3.590  14.184  0.1723 -0.0005 -0.2676
   23DC     H41  717   4.614   3.653  14.188 -1.1848  1.6979  2.8424
   23DC     H42  718   4.537   3.495  14.151 -0.4083 -0.5278  1.1398
   23DC      N3  719   4.316   3.556  14.231  0.0848 -0.1628  0.4073
   23DC      C2  720   4.201   3.605  14.285  0.1533 -0.0828  0.4817
   23DC      O2  721   4.107   3.525  14.296  0.5897 -0.5317  1.0056
   23DC     C3'  722   3.946   3.908  14.535  0.0312  0.2841  0.3309
   23DC     H3'  723   3.971   3.997  14.593  0.6651 -0.1406  0.7267
   23DC     C2'  724   4.065   3.812  14.529 -0.5340 -0.4402  0.4323
   23DC    H2'1  725   4.160   3.858  14.557 -0.4580 -2.3104  3.7590
   23DC    H2'2  726   4.050   3.723  14.589 -1.1743 -0.6868 -0.0877
   23DC     O3'  727   3.826   3.853  14.586  0.2234 -0.5157 -0.0665
   24DG       P  728   3.820   3.808  14.741  0.1098  0.1846  0.1349
   24DG     O1P  729   3.683   3.831  14.792 -0.0508  0.2141 -0.3041
   24DG     O2P  730   3.927   3.877  14.815  0.4732 -0.0974 -0.1216
   24DG     O5'  731   3.864   3.653  14.743  0.3021  0.2424  0.4671
   24DG     C5'  732   3.769   3.554  14.708  0.6251  0.1617 -0.2064
   24DG    H5'1  733   3.731   3.565  14.606  1.0037  1.3457 -0.2313
   24DG    H5'2  734   3.683   3.570  14.774  0.3125  0.1366 -0.6066
   24DG     C4'  735   3.823   3.414  14.735  0.1410  0.0627  0.2727
   24DG     H4'  736   3.747   3.342  14.705  0.3810 -0.0434 -0.0920
   24DG     O4'  737   3.932   3.399  14.646 -0.1113  0.3451 -0.0912
   24DG     C1'  738   4.043   3.365  14.727  0.0991  0.3162 -0.3930
   24DG     H1'  739   4.041   3.256  14.732  1.4996  0.2583 -0.5718
   24DG      N9  740   4.174   3.400  14.669  0.1117  0.5183 -0.2407
   24DG      C8  741   4.237   3.521  14.674  0.1845  0.4900 -0.4557
   24DG      H8  742   4.202   3.598  14.741 -0.2291 -0.9420  1.0413
   24DG      N7  743   4.350   3.524  14.609  0.1399  0.4484 -0.5343
   24DG      C5  744   4.360   3.399  14.549 -0.0608  0.1690  0.0097
   24DG      C6  745   4.459   3.341  14.465  0.3212 -0.3569  0.8147
   24DG      O6  746   4.561   3.397  14.426 -0.2079  0.1172  0.0954
   24DG      N1  747   4.437   3.208  14.431 -0.1129  0.0816 -0.6656
   24DG      H1  748   4.509   3.161  14.379  1.1141 -0.4926  1.4625
   24DG      C2  749   4.323   3.142  14.472 -0.0063  0.2605 -0.0749
   24DG      N2  750   4.314   3.012  14.441  0.0663  0.2466 -0.0361
   24DG     H21  751   4.377   2.975  14.372 -1.3787  0.9330 -1.8014
   24DG     H22  752   4.236   2.961  14.480  0.0397  2.1137  2.6093
   24DG      N3  753   4.227   3.196  14.549 -0.1227  0.1692 -0.1570
   24DG      C4  754   4.252   3.324  14.585  0.0298  0.0728  0.0821
   24DG     C3'  755   3.865   3.400  14.881  0.1259  0.1301  0.2835
   24DG     H3'  756   3.825   3.478  14.946 -0.5341  0.4827 -0.5315
   24DG     C2'  757   4.015   3.419  14.867  0.0678  0.1485 -0.3338
   24DG    H2'1  758   4.041   3.525  14.869  0.6344  0.0493  2.9271
   24DG    H2'2  759   4.076   3.378  14.947 -1.5965  0.9142  1.3771
   24DG     O3'  760   3.810   3.284  14.939  0.5310 -0.2336 -0.0466
   25DC       P  761   3.867   3.199  15.063  0.2546 -0.0947  0.1779
   25DC     O1P  762   3.764   3.110  15.120  0.1755 -0.5434 -0.6525
   25DC     O2P  763   3.937   3.301  15.145 -0.0491  0.2508  0.0118
   25DC     O5'  764   3.976   3.109  14.986  0.2991 -0.2857  0.4635
   25DC     C5'  765   3.942   3.016  14.885  0.1315 -0.0044  0.2614
   25DC    H5'1  766   3.945   3.073  14.792 -1.1846  0.2871  0.3838
   25DC    H5'2  767   3.841   2.980  14.902 -0.9829  2.0414 -1.4921
   25DC     C4'  768   4.038   2.899  14.872 -0.2557 -0.2519 -0.3996
   25DC     H4'  769   3.984   2.828  14.809 -0.0819 -0.1738 -0.6391
   25DC     O4'  770   4.161   2.933  14.810  0.0028 -0.1033  0.1858
   25DC     C1'  771   4.265   2.925  14.905  0.2112 -0.0389 -0.0379
   25DC     H1'  772   4.326   2.839  14.877  1.3743  0.8458 -0.2768
   25DC      N1  773   4.353   3.042  14.889  0.0331  0.0852 -0.1090
   25DC      C6  774   4.313   3.168  14.923 -0.3380  0.0973 -0.5820
   25DC      H6  775   4.229   3.173  14.991  0.4134 -2.1757  0.5933
   25DC      C5  776   4.391   3.273  14.889  0.2692 -0.0841  0.2086
   25DC      H5  777   4.367   3.371  14.929 -0.8149 -0.9423  1.7646
   25DC      C4  778   4.509   3.248  14.812  0.4535  0.0078  0.4633
   25DC      N4  779   4.595   3.347  14.781 -0.0664  0.2844 -0.1050
   25DC     H41  780   4.570   3.437  14.819 -0.4504  0.3990 -0.6056
   25DC     H42  781   4.663   3.342  14.707 -0.5011  2.3789 -0.7125
   25DC      N3  782   4.549   3.126  14.773 -0.2666  0.1182 -0.6538
   25DC      C2  783   4.466   3.026  14.812  0.4037 -0.0135  0.4547
   25DC      O2  784   4.500   2.913  14.776  0.1336  0.0209  0.1018
   25DC     C3'  785   4.074   2.836  15.006  0.0666 -0.0441 -0.3872
   25DC     H3'  786   4.010   2.871  15.087 -0.0420  0.6706 -0.7738
   25DC     C2'  787   4.204   2.907  15.044 -0.2204  0.3658 -0.1736
   25DC    H2'1  788   4.187   2.999  15.101 -0.2622  0.0684  0.2907
   25DC    H2'2  789   4.269   2.834  15.092  1.5967  1.3568 -1.0037
   25DC     O3'  790   4.083   2.695  15.013  0.1094 -0.0024  0.5427
   25DC     H3T  791   4.002   2.654  14.981  1.5822 -1.5983 -1.3614
   26G      O5'  792   5.418   3.138   1.693 -0.0188  0.0920 -0.1736
   26G      H5T  793   5.343   3.143   1.632 -0.9755 -0.1958  0.9333
   26G      C5'  794   5.474   3.010   1.711 -0.4865 -0.2243 -0.9052
   26G     H5'1  795   5.574   3.020   1.753 -0.7449 -1.4278  0.0646
   26G     H5'2  796   5.467   2.963   1.613  0.1732 -1.5405 -0.3601
   26G      C4'  797   5.390   2.915   1.796 -0.0542  0.3214  0.1476
   26G      H4'  798   5.448   2.824   1.815  0.3608  0.2993 -1.1602
   26G      O4'  799   5.352   2.971   1.920  0.0936 -0.2956  0.4783
   26G      C1'  800   5.222   2.925   1.946  0.0069 -0.0530  0.4765
   26G      H1'  801   5.236   2.877   2.043  2.2812 -0.3469  0.0580
   26G       N9  802   5.135   3.043   1.954 -0.0147 -0.0327 -0.0225
   26G       C8  803   5.169   3.176   1.950 -0.1194  0.0053  0.2800
   26G       H8  804   5.267   3.204   1.914 -0.7648  3.0507  0.6362
   26G       N7  805   5.081   3.264   1.989 -0.3093 -0.0282 -0.0703
   26G       C5  806   4.984   3.176   2.036 -0.1881 -0.3735 -0.4594
   26G       C6  807   4.863   3.205   2.104  0.1851  0.0071  0.0455
   26G       O6  808   4.820   3.318   2.130 -0.3314 -0.0686 -0.4616
   26G       N1  809   4.783   3.097   2.138 -0.2252  0.2346 -0.1810
   26G       H1  810   4.697   3.111   2.189  0.4242  2.0361  0.4849
   26G       C2  811   4.835   2.969   2.127 -0.5698  0.1553 -0.9026
   26G       N2  812   4.748   2.869   2.148 -0.2200  0.1259  0.4890
   26G      H21  813   4.652   2.895   2.164 -1.2486 -2.0963 -1.4718
   26G      H22  814   4.780   2.776   2.125 -0.7589 -0.6069  2.5342
   26G       N3  815   4.943   2.934   2.057 -0.1584 -0.3292 -0.0374
   26G       C4  816   5.012   3.044   2.017  0.0455 -0.4070  0.0977
   26G      C3'  817   5.261   2.866   1.730  0.3578 -0.3593 -0.1642
   26G      H3'  818   5.209   2.951   1.685 -3.1594 -1.1385  2.0907
   26G      C2'  819   5.173   2.821   1.846  0.0330  0.4641 -0.0790
   26G     H2'1  820   5.067   2.839   1.834  0.0855  1.3996  0.7935
   26G      O2'  821   5.197   2.687   1.886 -0.2497  0.5112  0.2530
   26G     HO'2  822   5.201   2.631   1.809  1.6630  1.3171 -0.3181
   26G      O3'  823   5.277   2.761   1.638  0.1839 -0.4453 -0.0954
   27C        P  824   5.188   2.742   1.505 -0.1350 -0.0937  0.0660
   27C      O1P  825   5.255   2.635   1.428 -0.0067 -0.0555  0.1235
   27C      O2P  826   5.187   2.880   1.451 -0.0685 -0.3634 -0.6439
   27C      O5'  827   5.039   2.696   1.543 -0.0914 -0.5236 -0.2749
   27C      C5'  828   5.007   2.565   1.585  0.1698 -0.2486  0.8208
   27C     H5'1  829   5.070   2.531   1.667 -0.5712 -1.5234  0.8781
   27C     H5'2  830   5.024   2.486   1.512  1.5581 -0.1937  1.0625
   27C      C4'  831   4.867   2.565   1.645 -0.0054 -0.1474  0.4135
   27C      H4'  832   4.845   2.466   1.685 -0.7816  0.0438  0.4890
   27C      O4'  833   4.864   2.660   1.749 -0.0828  0.3477 -0.0314
   27C      C1'  834   4.739   2.723   1.751 -0.0710  0.3914 -0.5391
   27C      H1'  835   4.700   2.694   1.849  3.6578 -1.6208  0.5433
   27C       N1  836   4.738   2.871   1.752 -0.2676  0.3923 -0.7737
   27C       C6  837   4.844   2.940   1.702  0.1809  0.1582 -0.1591
   27C       H6  838   4.931   2.890   1.661  0.2454 -0.4601  0.6995
   27C       C5  839   4.841   3.075   1.704 -0.0817  0.1505  0.0244
   27C       H5  840   4.918   3.136   1.658  1.2902  0.3584  2.3809
   27C       C4  841   4.733   3.139   1.773  0.1608  0.0991  0.4602
   27C       N4  842   4.721   3.272   1.786  0.0059  0.1945 -0.5805
   27C      H41  843   4.758   3.329   1.711  0.1922  0.3953 -0.3377
   27C      H42  844   4.646   3.305   1.845 -0.0796 -1.1203  0.0806
   27C       N3  845   4.635   3.068   1.830 -0.3090  0.0560 -0.3763
   27C       C2  846   4.635   2.932   1.820  0.3619 -0.0250  0.5829
   27C       O2  847   4.542   2.877   1.879  0.0538  0.3458  0.4485
   27C      C3'  848   4.757   2.603   1.545  0.5287 -0.1997 -0.2011
   27C      H3'  849   4.792   2.677   1.473 -1.7706  0.2470 -0.9330
   27C      C2'  850   4.654   2.667   1.637  0.2139 -0.5977 -0.2733
   27C     H2'1  851   4.596   2.750   1.596 -0.7472 -1.5030 -0.7917
   27C      O2'  852   4.560   2.575   1.689 -0.3201  0.0664 -0.0474
   27C     HO'2  853   4.495   2.559   1.621 -1.2513  0.6891  0.6739
   27C      O3'  854   4.703   2.489   1.481 -0.0992 -0.0369  0.0379
   28G        P  855   4.607   2.503   1.353 -0.0006 -0.0303 -0.0349
   28G      O1P  856   4.567   2.370   1.302  0.2355  0.0325 -0.3952
   28G      O2P  857   4.664   2.602   1.258 -0.3530 -0.3817 -0.6137
   28G      O5'  858   4.469   2.571   1.401 -0.1191  0.0230 -0.4427
   28G      C5'  859   4.358   2.495   1.444 -0.3474  0.4424 -0.2893
   28G     H5'1  860   4.397   2.419   1.511  1.7280 -1.0706 -3.0240
   28G     H5'2  861   4.321   2.441   1.357 -0.9497  2.3181 -1.2574
   28G      C4'  862   4.250   2.579   1.512 -0.1280  0.1429  0.4332
   28G      H4'  863   4.184   2.510   1.563 -0.5369  0.9693  1.0420
   28G      O4'  864   4.295   2.660   1.618  0.7260 -0.0643  0.2350
   28G      C1'  865   4.213   2.774   1.623  0.3643 -0.3227  0.1994
   28G      H1'  866   4.179   2.788   1.725  0.6870  1.7490  0.0709
   28G       N9  867   4.293   2.893   1.589  0.2847 -0.2269  0.3480
   28G       C8  868   4.411   2.898   1.519 -0.2086  0.0339 -0.4858
   28G       H8  869   4.449   2.810   1.469 -0.5316  0.6624 -1.8741
   28G       N7  870   4.471   3.014   1.514  0.2215 -0.1605  0.0446
   28G       C5  871   4.386   3.093   1.591  0.1724 -0.1899  0.0200
   28G       C6  872   4.392   3.233   1.617  0.2081 -0.2761  0.4851
   28G       O6  873   4.482   3.312   1.587 -0.4186  0.0896 -0.4855
   28G       N1  874   4.282   3.283   1.684  0.0265  0.0200 -0.0263
   28G       H1  875   4.289   3.380   1.711  1.2129 -0.0655  0.0221
   28G       C2  876   4.176   3.204   1.724 -0.0512  0.0557 -0.1620
   28G       N2  877   4.077   3.258   1.797  0.0269 -0.0303  0.0086
   28G      H21  878   4.090   3.355   1.822 -1.5686  0.4577 -0.9307
   28G      H22  879   4.009   3.198   1.841 -0.8811  0.9590 -0.0007
   28G       N3  880   4.170   3.073   1.699  0.0856  0.1021 -0.4405
   28G       C4  881   4.272   3.024   1.625 -0.1904  0.0163 -0.7636
   28G      C3'  882   4.172   2.673   1.420  0.4755 -0.1925 -0.4414
   28G      H3'  883   4.241   2.735   1.363  2.8366 -1.5306  0.7957
   28G      C2'  884   4.097   2.755   1.525  0.6971 -0.2929 -0.2038
   28G     H2'1  885   4.057   2.849   1.487  0.3219 -0.2354  0.3178
   28G      O2'  886   3.995   2.688   1.596  0.7455  0.4775  0.6157
   28G     HO'2  887   3.931   2.646   1.539  0.9681  0.2624  0.5224
   28G      O3'  888   4.094   2.600   1.328 -0.1157  0.1808 -0.2389
   29C        P  889   4.054   2.675   1.191  0.1453  0.3833 -0.2050
   29C      O1P  890   3.959   2.589   1.118  0.0621 -0.0060  0.3506
   29C      O2P  891   4.180   2.716   1.126  0.4609  0.2704  0.3276
   29C      O5'  892   3.978   2.804   1.250  0.0476  0.0664  0.3678
   29C      C5'  893   3.847   2.799   1.302 -0.3090 -0.3459 -0.5453
   29C     H5'1  894   3.842   2.735   1.391  2.2532  0.1920  0.0623
   29C     H5'2  895   3.780   2.758   1.226 -2.0116  0.4504  0.4451
   29C      C4'  896   3.785   2.931   1.347  0.5908 -0.0121 -0.2705
   29C      H4'  897   3.685   2.918   1.388  0.5638  1.0740  0.0331
   29C      O4'  898   3.867   2.995   1.442  0.3405 -0.1479  0.0371
   29C      C1'  899   3.877   3.134   1.422  0.1298 -0.1258  0.0933
   29C      H1'  900   3.839   3.186   1.510 -0.2286 -1.4279  0.7295
   29C       N1  901   4.006   3.187   1.375 -0.1619  0.1586 -0.4034
   29C       C6  902   4.097   3.111   1.307  0.0143  0.1685 -0.1794
   29C       H6  903   4.061   3.013   1.279  0.2126  0.1381 -0.3275
   29C       C5  904   4.218   3.158   1.269  0.1585 -0.2611 -0.2554
   29C       H5  905   4.286   3.089   1.221 -0.5563 -1.0008 -0.2297
   29C       C4  906   4.249   3.295   1.297  0.0464 -0.2379 -0.2436
   29C       N4  907   4.375   3.334   1.275  0.0672 -0.2132 -0.0783
   29C      H41  908   4.439   3.278   1.220  0.3706 -0.1238  0.1795
   29C      H42  909   4.402   3.422   1.318  0.8050 -1.0966  1.3282
   29C       N3  910   4.160   3.371   1.362  0.4812 -0.0754  0.1616
   29C       C2  911   4.042   3.317   1.403  0.3791 -0.0514 -0.1030
   29C       O2  912   3.959   3.391   1.455  0.2442 -0.2471 -0.0430
   29C      C3'  913   3.777   3.035   1.235  0.2083  0.1819 -0.0645
   29C      H3'  914   3.867   3.036   1.174  0.2087  1.0000 -0.0611
   29C      C2'  915   3.775   3.166   1.313  0.3870  0.1813 -0.0574
   29C     H2'1  916   3.801   3.253   1.252  1.1835 -0.6937 -0.9966
   29C      O2'  917   3.652   3.184   1.381  0.3149 -0.2125 -0.0852
   29C     HO'2  918   3.573   3.176   1.326  0.0409  0.7842  0.1407
   29C      O3'  919   3.658   3.018   1.161  0.0401  0.3332  0.1701
   30A        P  920   3.634   3.096   1.022 -0.2593 -0.1268 -0.0377
   30A      O1P  921   3.495   3.068   0.980 -0.1962 -0.0690 -0.2832
   30A      O2P  922   3.744   3.060   0.930 -0.5604 -0.4305 -0.2790
   30A      O5'  923   3.646   3.255   1.043 -0.1444 -0.0807 -0.4443
   30A      C5'  924   3.536   3.326   1.096  0.4210  0.0061  0.6499
   30A     H5'1  925   3.504   3.276   1.187 -0.4806 -2.8254 -1.0787
   30A     H5'2  926   3.449   3.312   1.031 -1.1679 -1.6497  2.9717
   30A      C4'  927   3.574   3.472   1.118 -0.3434  0.3245 -0.0563
   30A      H4'  928   3.484   3.520   1.156 -0.3456 -0.1406  0.5320
   30A      O4'  929   3.678   3.483   1.212 -0.1919 -0.1286 -0.1682
   30A      C1'  930   3.737   3.609   1.190 -0.1584 -0.0787  0.1985
   30A      H1'  931   3.743   3.678   1.275  0.4189  0.4083 -0.2306
   30A       N9  932   3.875   3.576   1.151 -0.2299 -0.4567  0.2676
   30A       C8  933   3.917   3.460   1.091 -0.0274  0.1449 -0.7704
   30A       H8  934   3.855   3.375   1.065  1.0720 -0.3399 -1.9003
   30A       N7  935   4.044   3.465   1.062  0.0065 -0.0400 -0.6552
   30A       C5  936   4.090   3.588   1.106 -0.1134 -0.3161  0.2682
   30A       C6  937   4.207   3.665   1.100 -0.4272  0.1442 -0.0811
   30A       N6  938   4.331   3.627   1.065 -0.4916 -0.1644  0.0214
   30A      H61  939   4.337   3.529   1.043 -1.6534 -0.6078  1.5519
   30A      H62  940   4.408   3.679   1.105 -0.0893 -0.3224 -0.5360
   30A       N1  941   4.218   3.789   1.148 -0.0304  0.0165  0.1592
   30A       C2  942   4.108   3.845   1.194 -0.2062  0.2053 -0.4865
   30A       H2  943   4.114   3.948   1.227 -3.2166 -0.3444  2.2899
   30A       N3  944   3.987   3.790   1.192  0.0909 -0.4897  0.2983
   30A       C4  945   3.984   3.660   1.155 -0.2162 -0.4752  0.2772
   30A      C3'  946   3.615   3.554   0.996  0.1221  0.1048 -0.0513
   30A      H3'  947   3.699   3.510   0.941 -0.8328 -0.2974 -1.2562
   30A      C2'  948   3.660   3.675   1.076  0.4850  0.0493 -0.1678
   30A     H2'1  949   3.722   3.733   1.009  0.5465 -0.1650 -0.2957
   30A      O2'  950   3.553   3.744   1.138  0.4341 -0.3126  0.1548
   30A     HO'2  951   3.591   3.815   1.191 -1.6519  0.9009  0.1313
   30A      O3'  952   3.508   3.578   0.907 -0.0129  0.3558  0.1779
   31G        P  953   3.540   3.635   0.760  0.1862 -0.0469  0.0631
   31G      O1P  954   3.412   3.652   0.689  0.0723 -0.4163  0.1800
   31G      O2P  955   3.644   3.549   0.698 -0.0591 -0.1775 -0.1646
   31G      O5'  956   3.614   3.777   0.778  0.2579 -0.1457  0.5508
   31G      C5'  957   3.544   3.880   0.844  0.2101  0.4390 -0.3939
   31G     H5'1  958   3.508   3.841   0.940  2.6218  0.6057  0.6578
   31G     H5'2  959   3.455   3.909   0.789  0.2088 -1.0682 -1.2444
   31G      C4'  960   3.624   4.003   0.885  0.3573  0.1246  0.2911
   31G      H4'  961   3.560   4.066   0.945  0.3456 -0.6946  1.1464
   31G      O4'  962   3.733   3.966   0.967  0.4006 -0.6931 -0.1267
   31G      C1'  963   3.837   4.058   0.946 -0.0938 -0.1770 -0.3332
   31G      H1'  964   3.888   4.102   1.032 -1.5709 -0.1135  0.5332
   31G       N9  965   3.950   3.985   0.886  0.1363 -0.0413 -0.0674
   31G       C8  966   3.944   3.859   0.833  0.0545 -0.0633 -0.0052
   31G       H8  967   3.857   3.795   0.825 -0.1776  0.2069  0.3038
   31G       N7  968   4.061   3.820   0.790 -0.0900  0.3280 -0.7608
   31G       C5  969   4.151   3.921   0.821 -0.0057  0.1217 -0.3302
   31G       C6  970   4.292   3.931   0.810  0.0094  0.0492 -0.2092
   31G       O6  971   4.372   3.845   0.772  0.0564 -0.2397  0.5356
   31G       N1  972   4.337   4.049   0.867 -0.1428 -0.2690  0.5885
   31G       H1  973   4.435   4.070   0.852 -1.0930  2.9717 -2.5032
   31G       C2  974   4.258   4.153   0.912 -0.0206  0.3477 -0.5658
   31G       N2  975   4.316   4.271   0.935  0.4447 -0.0696  0.4574
   31G      H21  976   4.416   4.284   0.928  0.1484  1.6211 -1.2297
   31G      H22  977   4.268   4.349   0.977  1.1662  1.7055 -1.7977
   31G       N3  978   4.124   4.145   0.922  0.0554 -0.0474  0.2915
   31G       C4  979   4.081   4.025   0.876  0.1397 -0.0087  0.1058
   31G      C3'  980   3.680   4.089   0.771  0.0097 -0.3093 -0.2109
   31G      H3'  981   3.720   4.022   0.695 -0.6570  0.7161 -1.5034
   31G      C2'  982   3.785   4.166   0.851 -0.0777 -0.1207 -0.2784
   31G     H2'1  983   3.861   4.191   0.778  0.6898 -0.2479  0.4690
   31G      O2'  984   3.740   4.275   0.928 -0.1332 -0.4233  0.1235
   31G     HO'2  985   3.645   4.279   0.918 -0.0980 -2.9596 -2.5635
   31G      O3'  986   3.596   4.186   0.714 -0.0466 -0.0605  0.2949
   32A        P  987   3.639   4.246   0.571  0.0234 -0.3797  0.1824
   32A      O1P  988   3.549   4.357   0.534  0.0459 -0.2526  0.5115
   32A      O2P  989   3.648   4.135   0.473  0.1056  0.0247 -0.2709
   32A      O5'  990   3.788   4.306   0.562 -0.0741 -0.1688 -0.0228
   32A      C5'  991   3.808   4.430   0.625  0.0117 -0.3308  0.2669
   32A     H5'1  992   3.782   4.432   0.731  1.2557 -1.6214  0.6223
   32A     H5'2  993   3.752   4.512   0.579  1.5521  0.9894  0.6723
   32A      C4'  994   3.958   4.456   0.621 -0.0222 -0.2505 -0.6349
   32A      H4'  995   3.987   4.531   0.695 -1.6910  0.3908 -0.5838
   32A      O4'  996   4.028   4.347   0.677  0.1482  0.1433 -0.0672
   32A      C1'  997   4.158   4.346   0.623  0.2514 -0.1412  0.1838
   32A      H1'  998   4.234   4.363   0.700  0.4728 -1.0356  0.1748
   32A       N9  999   4.173   4.215   0.557 -0.0545 -0.2112  0.2501
   32A       C8 1000   4.092   4.106   0.542  0.2898 -0.5098  0.5277
   32A       H8 1001   3.989   4.105   0.576  0.4704  0.0242  1.1236
   32A       N7 1002   4.146   3.997   0.496  0.0994 -0.5074  0.2960
   32A       C5 1003   4.279   4.037   0.484 -0.0746  0.0914  0.3326
   32A       C6 1004   4.401   3.977   0.450 -0.2416 -0.1814  0.2105
   32A       N6 1005   4.411   3.855   0.396  0.0312  0.1639 -0.5407
   32A      H61 1006   4.331   3.798   0.374  0.7125 -0.1464 -2.3527
   32A      H62 1007   4.507   3.829   0.379  0.4685 -0.7466  2.5571
   32A       N1 1008   4.522   4.033   0.465 -0.5420  0.5517 -0.0579
   32A       C2 1009   4.519   4.159   0.508  0.2258  0.2495  0.9122
   32A       H2 1010   4.617   4.203   0.519  1.6701 -2.1767 -1.1572
   32A       N3 1011   4.414   4.234   0.538 -0.0282  0.3431 -0.1939
   32A       C4 1012   4.298   4.165   0.528  0.0545  0.1669  0.0609
   32A      C3' 1013   4.020   4.484   0.485  0.2100 -0.3336 -0.5464
   32A      H3' 1014   3.981   4.412   0.413 -1.0474  0.7265 -0.9767
   32A      C2' 1015   4.166   4.455   0.516  0.0995  0.0891  0.4034
   32A     H2'1 1016   4.226   4.418   0.432  0.8939 -1.0935  1.4478
   32A      O2' 1017   4.227   4.567   0.576 -0.0407 -0.1187  0.9443
   32A     HO'2 1018   4.171   4.645   0.582  0.6750  0.3677  1.4388
   32A      O3' 1019   3.999   4.619   0.450 -0.1945 -0.2666 -0.0560
   33U        P 1020   4.015   4.665   0.296  0.0876 -0.0434  0.0385
   33U      O1P 1021   3.988   4.811   0.299 -0.7271 -0.1896  0.3643
   33U      O2P 1022   3.941   4.576   0.204 -0.3518  0.6309 -0.2681
   33U      O5' 1023   4.172   4.651   0.264  0.0144  0.1754 -0.4293
   33U      C5' 1024   4.268   4.746   0.304  0.4600 -0.5333  0.2288
   33U     H5'1 1025   4.271   4.771   0.410 -0.7123  0.8453 -0.0233
   33U     H5'2 1026   4.238   4.840   0.257  1.3909 -1.1268 -1.6227
   33U      C4' 1027   4.410   4.705   0.268  0.7197  0.5297 -0.0152
   33U      H4' 1028   4.473   4.788   0.299 -0.4691  0.2845  3.5044
   33U      O4' 1029   4.445   4.586   0.337  0.5989  0.1186 -0.6536
   33U      C1' 1030   4.541   4.516   0.262  1.0057 -0.1590  0.1229
   33U      H1' 1031   4.629   4.504   0.326  1.6468  0.3206 -0.6507
   33U       N1 1032   4.492   4.383   0.225 -0.1773  0.1460  0.5534
   33U       C6 1033   4.359   4.361   0.203 -0.0377 -0.0091 -0.1710
   33U       H6 1034   4.281   4.436   0.208 -2.2418 -2.0340 -1.5841
   33U       C5 1035   4.316   4.238   0.169  0.0528 -0.0196 -0.2452
   33U       H5 1036   4.211   4.220   0.151  0.2322  0.9104 -2.5748
   33U       C4 1037   4.408   4.130   0.142  0.2874  0.3295 -0.8484
   33U       O4 1038   4.365   4.018   0.116 -0.6393  0.5379 -0.2522
   33U       N3 1039   4.542   4.156   0.170  0.0730 -0.0540  0.5997
   33U       H3 1040   4.605   4.088   0.131 -2.2161 -0.7799 -2.2076
   33U       C2 1041   4.585   4.281   0.211 -0.2059  0.1596  0.2502
   33U       O2 1042   4.705   4.302   0.230 -0.1026 -0.4536  0.2932
   33U      C3' 1043   4.438   4.681   0.120 -0.3631 -0.2771 -0.1060
   33U      H3' 1044   4.361   4.614   0.083 -0.0903 -1.3423  1.1724
   33U      C2' 1045   4.572   4.613   0.148 -0.0918  0.4103  0.2985
   33U     H2'1 1046   4.603   4.554   0.062 -0.8873 -0.6404  0.7089
   33U      O2' 1047   4.681   4.697   0.181  0.3222 -0.1929  0.4830
   33U     HO'2 1048   4.657   4.787   0.160  0.9614 -0.1406 -0.0482
   33U      O3' 1049   4.463   4.791   0.035  0.1966 -0.2266  0.1175
   34G        P 1050   4.445   4.791  -0.125 -0.2397  0.0130  0.1658
   34G      O1P 1051   4.463   4.930  -0.173 -0.1565 -0.2362 -0.5336
   34G      O2P 1052   4.313   4.732  -0.157  0.0085 -0.6448  0.3503
   34G      O5' 1053   4.567   4.698  -0.172 -0.2403  0.4039 -0.6211
   34G      C5' 1054   4.695   4.753  -0.191  0.1392 -0.0193  0.6279
   34G     H5'1 1055   4.718   4.798  -0.095  1.6652  0.1064  0.2296
   34G     H5'2 1056   4.699   4.816  -0.280  0.6297 -0.3871  0.3801
   34G      C4' 1057   4.802   4.645  -0.211  0.3178  0.2306  0.2007
   34G      H4' 1058   4.901   4.680  -0.184  1.0775 -1.6859  0.0896
   34G      O4' 1059   4.784   4.538  -0.120  0.0751 -0.0104 -0.1297
   34G      C1' 1060   4.821   4.414  -0.176  0.3320  0.1137 -0.2338
   34G      H1' 1061   4.901   4.375  -0.113  0.2748 -1.3361 -1.0227
   34G       N9 1062   4.706   4.323  -0.168  0.2032  0.2932 -0.0515
   34G       C8 1063   4.574   4.356  -0.146  0.2594  0.3313  0.2341
   34G       H8 1064   4.542   4.458  -0.131 -0.1839  0.4801 -1.5237
   34G       N7 1065   4.494   4.253  -0.146  0.4149  0.2041 -0.4402
   34G       C5 1066   4.577   4.143  -0.167  0.0441 -0.3128  0.7551
   34G       C6 1067   4.544   4.011  -0.207 -0.0868  0.0517 -0.3610
   34G       O6 1068   4.431   3.963  -0.218 -0.2140  0.1699  0.4085
   34G       N1 1069   4.649   3.924  -0.229  0.0922  0.2315 -0.2129
   34G       H1 1070   4.625   3.829  -0.255 -1.4783  0.1449  1.3950
   34G       C2 1071   4.776   3.979  -0.232  0.1846  0.0736  0.6186
   34G       N2 1072   4.870   3.888  -0.261 -0.1049  0.0627 -0.3302
   34G      H21 1073   4.843   3.793  -0.281  0.8890 -0.1133 -0.9007
   34G      H22 1074   4.961   3.917  -0.292 -0.9723  0.8259 -2.2997
   34G       N3 1075   4.811   4.108  -0.218 -0.2107  0.2034  0.4270
   34G       C4 1076   4.705   4.187  -0.188 -0.2146  0.2403  0.3116
   34G      C3' 1077   4.808   4.579  -0.348  0.4442  0.0878  0.2727
   34G      H3' 1078   4.706   4.573  -0.388  0.3100  1.5644  0.3277
   34G      C2' 1079   4.864   4.441  -0.320  0.4147 -0.0299 -0.2360
   34G     H2'1 1080   4.830   4.360  -0.385 -1.0393  1.5096 -1.4566
   34G      O2' 1081   5.005   4.449  -0.311  0.3514  0.4079  0.4089
   34G     HO'2 1082   5.043   4.474  -0.395  2.1283 -0.2143  0.9674
   34G      O3' 1083   4.888   4.647  -0.443  0.4077 -0.3703 -0.0882
   35C        P 1084   4.850   4.651  -0.599  0.0180 -0.1360  0.0123
   35C      O1P 1085   4.953   4.725  -0.674 -0.1748 -0.1199 -0.2385
   35C      O2P 1086   4.710   4.696  -0.618  0.0406  0.0582  0.3081
   35C      O5' 1087   4.859   4.499  -0.651 -0.3946 -0.2201  0.1803
   35C      C5' 1088   4.988   4.449  -0.681  0.0103  0.6092  0.5094
   35C     H5'1 1089   5.064   4.498  -0.621 -0.5596 -0.0462  1.8171
   35C     H5'2 1090   5.006   4.464  -0.787 -3.7279  0.3282 -0.3130
   35C      C4' 1091   5.006   4.297  -0.673 -0.3414  0.5277 -0.1832
   35C      H4' 1092   5.112   4.271  -0.676 -0.2013  1.1293 -0.9476
   35C      O4' 1093   4.951   4.236  -0.559  0.1136  0.0869 -0.1955
   35C      C1' 1094   4.906   4.106  -0.590  0.4344 -0.0093 -0.2688
   35C      H1' 1095   4.955   4.045  -0.514 -1.6864 -0.5148  0.7759
   35C       N1 1096   4.759   4.096  -0.587  0.4337  0.0389 -0.1483
   35C       C6 1097   4.676   4.204  -0.577 -0.4039 -0.6124  0.1656
   35C       H6 1098   4.721   4.302  -0.576 -0.5353 -0.5502 -0.0344
   35C       C5 1099   4.544   4.181  -0.563 -0.4265 -0.0131  0.9969
   35C       H5 1100   4.487   4.270  -0.540 -0.4457  0.5016 -0.8753
   35C       C4 1101   4.492   4.047  -0.557 -0.1878 -0.1996 -0.7726
   35C       N4 1102   4.364   4.018  -0.531 -0.0325 -0.0472  0.1964
   35C      H41 1103   4.300   4.097  -0.539 -0.3096 -0.1759  1.0530
   35C      H42 1104   4.336   3.922  -0.525  1.2577 -0.5825 -1.5612
   35C       N3 1105   4.573   3.941  -0.562 -0.0655 -0.1534  0.1400
   35C       C2 1106   4.705   3.969  -0.576 -0.2242  0.2790 -0.5333
   35C       O2 1107   4.774   3.867  -0.585 -0.0185  0.3561  0.1402
   35C      C3' 1108   4.947   4.214  -0.787  0.1249  0.0526 -0.0792
   35C      H3' 1109   4.848   4.256  -0.800 -0.2822 -0.6051  0.7774
   35C      C2' 1110   4.949   4.071  -0.732  0.6662  0.0077 -0.2029
   35C     H2'1 1111   4.883   4.001  -0.783 -1.5702  2.1341 -0.4143
   35C      O2' 1112   5.079   4.019  -0.744  0.4152 -0.6211 -0.2339
   35C     HO'2 1113   5.109   4.079  -0.814 -1.6462  1.7493  0.7793
   35C      O3' 1114   5.024   4.221  -0.905 -0.0913  0.3444 -0.2027
   36C        P 1115   4.943   4.222  -1.043 -0.0105 -0.2588 -0.2563
   36C      O1P 1116   5.042   4.221  -1.153  0.0812  0.3000 -0.1824
   36C      O2P 1117   4.841   4.330  -1.046  0.5320  0.2715  0.3096
   36C      O5' 1118   4.884   4.073  -1.030 -0.3755 -0.0726  0.2601
   36C      C5' 1119   4.956   3.955  -1.058 -0.2605  0.0845 -0.1110
   36C     H5'1 1120   5.052   3.953  -1.007  0.7144  1.4677 -1.7677
   36C     H5'2 1121   4.989   3.953  -1.162  1.7769 -0.0090  0.4790
   36C      C4' 1122   4.869   3.833  -1.032  0.1662 -0.1837  0.0598
   36C      H4' 1123   4.935   3.746  -1.026  1.5498  0.9207  2.6749
   36C      O4' 1124   4.786   3.842  -0.919 -0.2052 -0.1721 -0.2141
   36C      C1' 1125   4.671   3.760  -0.927 -0.1637 -0.2953  0.3549
   36C      H1' 1126   4.685   3.675  -0.860  2.6426  0.2365  0.5940
   36C       N1 1127   4.548   3.833  -0.892 -0.1459 -0.0131 -0.1491
   36C       C6 1128   4.544   3.969  -0.896 -0.4360 -0.0114  0.1470
   36C       H6 1129   4.626   4.036  -0.919 -0.5953  0.8999  1.9642
   36C       C5 1130   4.424   4.028  -0.878 -0.2302  0.4660 -0.0112
   36C       H5 1131   4.408   4.135  -0.883  0.2268  0.4807 -1.4182
   36C       C4 1132   4.313   3.946  -0.840  0.0138 -0.0940 -0.4847
   36C       N4 1133   4.193   3.994  -0.802  0.0052 -0.1999 -0.3756
   36C      H41 1134   4.171   4.089  -0.830 -3.3581  0.7211  4.1166
   36C      H42 1135   4.118   3.931  -0.780 -0.8532  1.2207  1.0108
   36C       N3 1136   4.318   3.813  -0.831 -0.1820 -0.0581  0.2985
   36C       C2 1137   4.436   3.756  -0.866 -0.2223  0.1063 -0.1190
   36C       O2 1138   4.443   3.633  -0.865  0.0502  0.1143 -0.7597
   36C      C3' 1139   4.765   3.812  -1.141  0.0608 -0.0260  0.1297
   36C      H3' 1140   4.713   3.905  -1.162 -0.8062 -0.6271 -0.4544
   36C      C2' 1141   4.672   3.713  -1.072 -0.1290  0.1955  0.1930
   36C     H2'1 1142   4.573   3.718  -1.118 -1.1708 -0.6699  2.2457
   36C      O2' 1143   4.731   3.585  -1.059  0.3618  0.3678 -0.2738
   36C     HO'2 1144   4.671   3.528  -1.107  1.8135 -0.6700 -0.8931
   36C      O3' 1145   4.829   3.752  -1.251  0.0268 -0.5284  0.3790
   37C        P 1146   4.759   3.741  -1.396  0.2380  0.0938  0.2256
   37C      O1P 1147   4.865   3.678  -1.479 -0.1857  0.2672 -0.4573
   37C      O2P 1148   4.689   3.867  -1.427 -0.0625 -0.1133  0.0520
   37C      O5' 1149   4.644   3.632  -1.368  0.0695  0.2240  0.0427
   37C      C5' 1150   4.670   3.494  -1.379 -0.0387  0.1936  0.1605
   37C     H5'1 1151   4.770   3.475  -1.341  0.6082 -1.2656 -2.0817
   37C     H5'2 1152   4.673   3.471  -1.486  1.9507  0.8901  0.0352
   37C      C4' 1153   4.566   3.404  -1.313 -0.3264  0.4061  0.0010
   37C      H4' 1154   4.609   3.306  -1.291  0.0122  0.4872 -0.2966
   37C      O4' 1155   4.504   3.457  -1.197 -0.2959 -0.0025  0.2057
   37C      C1' 1156   4.368   3.422  -1.187 -0.1117 -0.5342  0.9584
   37C      H1' 1157   4.351   3.362  -1.098 -0.3517 -0.6673  0.8254
   37C       N1 1158   4.283   3.541  -1.168  0.2616 -0.1282  0.1333
   37C       C6 1159   4.321   3.669  -1.197 -0.3834  0.1323  0.4114
   37C       H6 1160   4.421   3.683  -1.238  0.2717 -2.4691  0.9111
   37C       C5 1161   4.240   3.771  -1.165 -0.5415  0.1014  0.1102
   37C       H5 1162   4.266   3.875  -1.182 -0.8320  0.2570  0.5942
   37C       C4 1163   4.107   3.742  -1.118 -0.3645  0.0125  0.5570
   37C       N4 1164   4.025   3.838  -1.075 -0.1545  0.5281 -0.1834
   37C      H41 1165   4.057   3.933  -1.088 -1.2131  0.6763 -2.1769
   37C      H42 1166   3.942   3.804  -1.029  0.3947 -0.6731 -0.0326
   37C       N3 1167   4.064   3.615  -1.107 -0.1372 -0.0911  0.2708
   37C       C2 1168   4.153   3.515  -1.131  0.2102  0.2297  0.2023
   37C       O2 1169   4.110   3.400  -1.118  0.1929  0.1987 -0.1283
   37C      C3' 1170   4.449   3.402  -1.411 -0.3933  0.1111  0.0853
   37C      H3' 1171   4.429   3.502  -1.449  1.0245 -0.2151 -1.7148
   37C      C2' 1172   4.333   3.359  -1.322 -0.1128  0.3166  0.5517
   37C     H2'1 1173   4.236   3.392  -1.358 -0.1230  0.3116  0.5757
   37C      O2' 1174   4.326   3.218  -1.312  0.4000  0.2795  0.4226
   37C     HO'2 1175   4.255   3.182  -1.365 -0.6708  0.7415  1.5048
   37C      O3' 1176   4.485   3.323  -1.523 -0.6103 -0.4091  0.3789
   38U        P 1177   4.418   3.334  -1.669  0.1048  0.0003  0.0784
   38U      O1P 1178   4.506   3.262  -1.764 -0.4713 -0.2194 -0.2954
   38U      O2P 1179   4.396   3.478  -1.696  0.0799 -0.0528 -0.1883
   38U      O5' 1180   4.278   3.256  -1.654  0.0189  0.1228 -0.0895
   38U      C5' 1181   4.270   3.118  -1.629 -0.4342  0.0970 -0.3645
   38U     H5'1 1182   4.353   3.088  -1.565 -0.3348  1.2850  0.0983
   38U     H5'2 1183   4.289   3.063  -1.721  1.5762 -0.4837  0.3480
   38U      C4' 1184   4.137   3.078  -1.565 -0.3671  0.3894 -0.0389
   38U      H4' 1185   4.133   2.970  -1.552 -0.8390  0.3934 -0.0992
   38U      O4' 1186   4.118   3.139  -1.439 -0.3936  0.2175  0.0406
   38U      C1' 1187   3.980   3.162  -1.422 -0.4627 -0.3718  0.2655
   38U      H1' 1188   3.949   3.110  -1.331 -0.6711 -1.7598 -0.5597
   38U       N1 1189   3.948   3.305  -1.410  0.5070 -0.1301  0.0792
   38U       C6 1190   4.022   3.401  -1.473  0.1908  0.3975  0.4996
   38U       H6 1191   4.103   3.372  -1.538 -1.0629 -0.2027 -0.8430
   38U       C5 1192   3.994   3.532  -1.463 -0.5193  0.3305 -0.4688
   38U       H5 1193   4.040   3.605  -1.528  0.3811 -0.7051 -1.0306
   38U       C4 1194   3.885   3.577  -1.379 -0.1173  0.2586  0.0953
   38U       O4 1195   3.851   3.694  -1.364 -0.1989  0.1997  0.3815
   38U       N3 1196   3.821   3.477  -1.306 -0.2208  0.0587 -0.2656
   38U       H3 1197   3.725   3.494  -1.280 -0.3416 -1.7202  0.5990
   38U       C2 1198   3.842   3.342  -1.329  0.5717  0.1210  0.0515
   38U       O2 1199   3.753   3.264  -1.295  0.5918  0.0491 -0.0617
   38U      C3' 1200   4.015   3.108  -1.653 -0.4100 -0.0932 -0.1474
   38U      H3' 1201   4.023   3.210  -1.690  0.2828  0.3335  1.1201
   38U      C2' 1202   3.909   3.103  -1.543 -0.2314 -0.1528  0.0226
   38U     H2'1 1203   3.812   3.149  -1.561 -1.3288 -2.0951  0.6478
   38U      O2' 1204   3.882   2.971  -1.499  0.3693 -0.3318 -0.1317
   38U     HO'2 1205   3.922   2.913  -1.564  0.5882 -0.4742  0.1302
   38U      O3' 1206   4.004   3.011  -1.754 -0.2321 -0.3451  0.0736
   39U        P 1207   3.899   3.033  -1.875  0.0557 -0.0717 -0.1292
   39U      O1P 1208   3.904   2.908  -1.955 -0.1768  0.1226 -0.4466
   39U      O2P 1209   3.947   3.156  -1.942  0.2520 -0.2962 -0.4034
   39U      O5' 1210   3.752   3.052  -1.813  0.3522 -0.5200  0.7391
   39U      C5' 1211   3.669   2.952  -1.758 -0.4034 -0.1330  0.3309
   39U     H5'1 1212   3.727   2.900  -1.681  2.4696  0.7623 -1.0881
   39U     H5'2 1213   3.639   2.879  -1.833 -0.2882 -2.3431  2.2832
   39U      C4' 1214   3.543   3.010  -1.696 -0.3430 -0.0032  0.3313
   39U      H4' 1215   3.490   2.927  -1.650 -0.3523  0.2532  0.7905
   39U      O4' 1216   3.578   3.112  -1.605  0.5655  0.5577 -0.6294
   39U      C1' 1217   3.465   3.194  -1.588  0.2696  0.0231 -0.0007
   39U      H1' 1218   3.434   3.196  -1.483  0.4915  0.1964  0.0629
   39U       N1 1219   3.521   3.330  -1.599  0.2301  0.0144 -0.2893
   39U       C6 1220   3.610   3.370  -1.695  0.3000  0.0809 -0.1957
   39U       H6 1221   3.656   3.298  -1.761 -0.0118 -1.9309  1.6755
   39U       C5 1222   3.653   3.498  -1.707  0.6198  0.0202  0.2792
   39U       H5 1223   3.724   3.534  -1.780 -0.3955  2.2252  0.2962
   39U       C4 1224   3.618   3.597  -1.608 -0.1140 -0.2208  0.2636
   39U       O4 1225   3.656   3.713  -1.609 -0.2552 -0.1746  0.2148
   39U       N3 1226   3.520   3.555  -1.518 -0.6022  0.4542  0.0495
   39U       H3 1227   3.477   3.627  -1.462 -0.0436  1.1841 -0.4319
   39U       C2 1228   3.466   3.427  -1.518  0.6993 -0.1100  0.1787
   39U       O2 1229   3.362   3.417  -1.454  0.3140  0.6023 -0.3154
   39U      C3' 1230   3.447   3.082  -1.791 -0.2782 -0.0938  0.1974
   39U      H3' 1231   3.505   3.152  -1.850 -0.4356 -0.0663  0.0743
   39U      C2' 1232   3.360   3.161  -1.694  0.0964  0.5672 -0.0000
   39U     H2'1 1233   3.327   3.256  -1.736 -0.5004  1.6713  2.7427
   39U      O2' 1234   3.263   3.080  -1.630  0.7353 -0.2221 -0.0138
   39U     HO'2 1235   3.227   3.017  -1.693 -0.3174  0.6068 -0.2849
   39U      O3' 1236   3.362   2.991  -1.858 -0.0203 -0.1444 -0.0606
   40C        P 1237   3.302   3.027  -2.003 -0.3938 -0.0111  0.1247
   40C      O1P 1238   3.251   2.901  -2.063 -0.1634  0.2110 -0.5533
   40C      O2P 1239   3.402   3.105  -2.080  0.0633 -0.4213  0.2946
   40C      O5' 1240   3.183   3.130  -1.973 -0.0271  0.4006  0.1687
   40C      C5' 1241   3.060   3.095  -1.914  0.2320 -0.1273  0.3972
   40C     H5'1 1242   3.081   3.030  -1.829 -0.8462 -1.7059 -0.4853
   40C     H5'2 1243   3.003   3.033  -1.984 -0.3058 -4.1443  3.9896
   40C      C4' 1244   2.974   3.215  -1.877  0.5291  0.2679 -0.1762
   40C      H4' 1245   2.884   3.174  -1.830  1.5828 -1.7210  0.2177
   40C      O4' 1246   3.040   3.301  -1.788  0.1078  0.2980  0.1128
   40C      C1' 1247   3.013   3.438  -1.803 -0.0245  0.2135 -0.4344
   40C      H1' 1248   2.955   3.469  -1.716 -1.6924 -0.6538 -1.1986
   40C       N1 1249   3.137   3.518  -1.814 -0.0959  0.4305  0.2656
   40C       C6 1250   3.249   3.473  -1.878 -0.1204  0.6937  0.0344
   40C       H6 1251   3.253   3.370  -1.911 -0.7129  0.7635 -0.2685
   40C       C5 1252   3.350   3.559  -1.901  0.1287  0.2599 -0.5131
   40C       H5 1253   3.434   3.525  -1.959  0.1848 -2.5495  1.0193
   40C       C4 1254   3.339   3.690  -1.845 -0.2738  0.0210 -0.0281
   40C       N4 1255   3.438   3.779  -1.861 -0.0883 -0.2386 -0.3238
   40C      H41 1256   3.518   3.761  -1.920  0.1421  2.0750 -0.8050
   40C      H42 1257   3.427   3.873  -1.826  0.6984 -0.9806  2.0893
   40C       N3 1258   3.230   3.739  -1.784  0.3256  0.4934  0.6697
   40C       C2 1259   3.130   3.649  -1.771  0.4837  0.3218  0.7062
   40C       O2 1260   3.031   3.693  -1.712 -0.0191  0.0527  0.0777
   40C      C3' 1261   2.939   3.311  -1.990 -0.3419  0.1389 -0.0252
   40C      H3' 1262   3.033   3.301  -2.045  0.5129 -0.4821  1.5063
   40C      C2' 1263   2.930   3.451  -1.930 -0.4071  0.2049 -0.1895
   40C     H2'1 1264   2.962   3.528  -2.001 -0.7480  0.9256  0.4287
   40C      O2' 1265   2.797   3.487  -1.899 -0.3634  0.2416 -0.0464
   40C     HO'2 1266   2.763   3.494  -1.988 -1.8415 -0.8580  0.3846
   40C      O3' 1267   2.831   3.268  -2.071  0.2122 -0.4611 -0.4538
   41C        P 1268   2.790   3.345  -2.206 -0.0587 -0.0007 -0.1139
   41C      O1P 1269   2.691   3.264  -2.280  0.1446 -0.3311 -0.0272
   41C      O2P 1270   2.921   3.373  -2.270 -0.2103  0.3287 -0.2819
   41C      O5' 1271   2.734   3.491  -2.168 -0.3434 -0.2315  0.3591
   41C      C5' 1272   2.599   3.523  -2.147 -0.3946 -0.0296 -0.2530
   41C     H5'1 1273   2.559   3.453  -2.073 -0.1284 -0.6119 -0.6455
   41C     H5'2 1274   2.554   3.501  -2.244  2.7108  0.3435 -1.8780
   41C      C4' 1275   2.589   3.671  -2.115  0.0325 -0.0372 -0.0802
   41C      H4' 1276   2.487   3.687  -2.080 -0.4024  0.4623 -1.4788
   41C      O4' 1277   2.687   3.709  -2.022  0.3646  0.0980 -0.4815
   41C      C1' 1278   2.714   3.847  -2.036 -0.2766  0.2878  0.0921
   41C      H1' 1279   2.691   3.900  -1.944 -0.2041 -0.0912  0.3293
   41C       N1 1280   2.856   3.868  -2.069 -0.2096 -0.0780  0.1507
   41C       C6 1281   2.944   3.770  -2.108 -0.3958 -0.3981  0.5238
   41C       H6 1282   2.903   3.674  -2.136 -0.9911 -0.3477  1.1771
   41C       C5 1283   3.077   3.791  -2.111 -0.5267  0.4783  0.4301
   41C       H5 1284   3.142   3.710  -2.140  1.2407  2.0643 -0.2293
   41C       C4 1285   3.129   3.922  -2.087  0.5315  0.0392  0.5854
   41C       N4 1286   3.258   3.953  -2.103  0.3941  0.2165 -0.1804
   41C      H41 1287   3.322   3.878  -2.129  0.9647 -0.7359  3.4946
   41C      H42 1288   3.275   4.050  -2.084 -2.7826  0.6074  1.1807
   41C       N3 1289   3.044   4.018  -2.047  0.1180 -0.2025  0.2926
   41C       C2 1290   2.911   3.993  -2.047  0.0716 -0.0016 -0.9380
   41C       O2 1291   2.837   4.090  -2.029  0.0430 -0.2243  0.2463
   41C      C3' 1292   2.611   3.768  -2.231 -0.5596  0.0175 -0.1484
   41C      H3' 1293   2.710   3.751  -2.274 -0.6179 -3.7723  0.8409
   41C      C2' 1294   2.625   3.897  -2.150 -0.1422 -0.0269 -0.1507
   41C     H2'1 1295   2.686   3.971  -2.202  1.7536 -0.1399  1.7920
   41C      O2' 1296   2.504   3.941  -2.093 -0.1725 -0.1370 -0.1307
   41C     HO'2 1297   2.513   4.034  -2.074  2.4427 -0.5496  1.1369
   41C      O3' 1298   2.506   3.775  -2.326 -0.4514 -0.1638 -0.2818
   42G        P 1299   2.536   3.830  -2.474 -0.1436  0.2585 -0.0641
   42G      O1P 1300   2.405   3.824  -2.544  0.3097 -0.6557 -0.8529
   42G      O2P 1301   2.654   3.760  -2.529 -0.2329 -0.1167  0.2158
   42G      O5' 1302   2.585   3.983  -2.461  0.1990  0.1374  0.0725
   42G      C5' 1303   2.496   4.087  -2.426  0.0934  0.2421 -0.5001
   42G     H5'1 1304   2.427   4.066  -2.344  0.8413 -1.3986 -0.2397
   42G     H5'2 1305   2.437   4.122  -2.511 -2.0038  1.0363  1.2122
   42G      C4' 1306   2.582   4.210  -2.400 -0.3566  0.3904  0.2952
   42G      H4' 1307   2.514   4.287  -2.364 -2.1465 -1.0718  0.1616
   42G      O4' 1308   2.688   4.201  -2.307 -0.2054 -0.4464  0.0541
   42G      C1' 1309   2.799   4.271  -2.358 -0.5278 -0.0815 -0.1507
   42G      H1' 1310   2.838   4.343  -2.286 -0.3766  0.4470 -0.7507
   42G       N9 1311   2.917   4.191  -2.397 -0.2598  0.0356  0.4116
   42G       C8 1312   2.924   4.061  -2.438  0.0946  0.3363 -0.5223
   42G       H8 1313   2.835   4.004  -2.459  0.7188  0.0207 -2.4869
   42G       N7 1314   3.047   4.018  -2.444 -0.0338 -0.4058  1.2255
   42G       C5 1315   3.126   4.132  -2.427 -0.1022 -0.3468  1.1491
   42G       C6 1316   3.266   4.151  -2.439 -0.1489 -0.2980  0.6519
   42G       O6 1317   3.358   4.072  -2.457  0.4661  0.4258  0.5985
   42G       N1 1318   3.301   4.283  -2.419 -0.2001 -0.1836  0.0109
   42G       H1 1319   3.401   4.297  -2.425 -0.1508  0.6469  1.9764
   42G       C2 1320   3.215   4.388  -2.395  0.0880  0.0600  0.0010
   42G       N2 1321   3.271   4.509  -2.408 -0.5873  0.3541 -0.2768
   42G      H21 1322   3.372   4.516  -2.412 -0.4947  1.1721  2.0020
   42G      H22 1323   3.222   4.596  -2.394  1.2489  1.3751  0.1833
   42G       N3 1324   3.082   4.369  -2.386  0.1393 -0.2582  0.1052
   42G       C4 1325   3.045   4.240  -2.403 -0.2048 -0.1488  0.0103
   42G      C3' 1326   2.642   4.261  -2.531  0.1059 -0.0119  0.3471
   42G      H3' 1327   2.687   4.178  -2.586 -0.6193 -0.1453 -0.0587
   42G      C2' 1328   2.756   4.349  -2.482  0.1578  0.2233 -0.2002
   42G     H2'1 1329   2.828   4.363  -2.563 -1.2817  1.6522 -1.3217
   42G      O2' 1330   2.704   4.472  -2.436 -0.0034  0.1165 -0.0968
   42G     HO'2 1331   2.775   4.535  -2.422 -0.9235  0.9900  0.7690
   42G      O3' 1332   2.545   4.324  -2.611  0.1660  0.1139  0.3742
   43U        P 1333   2.563   4.354  -2.768 -0.1328 -0.1137  0.2952
   43U      O1P 1334   2.448   4.426  -2.827  0.0408 -0.1426 -0.0840
   43U      O2P 1335   2.604   4.226  -2.831  0.1674 -0.0787  0.4160
   43U      O5' 1336   2.690   4.453  -2.766 -0.5545  0.4314  0.1901
   43U      C5' 1337   2.673   4.590  -2.735 -0.1249  0.6241 -0.3946
   43U     H5'1 1338   2.623   4.605  -2.639 -1.0056  1.7131 -1.0008
   43U     H5'2 1339   2.605   4.627  -2.812 -0.9242  1.2398  0.5885
   43U      C4' 1340   2.808   4.660  -2.738 -0.0164  0.4692  0.6549
   43U      H4' 1341   2.790   4.760  -2.700  0.1416  0.3425  1.0705
   43U      O4' 1342   2.907   4.594  -2.662  0.3273  0.2511  0.0255
   43U      C1' 1343   3.035   4.603  -2.721  0.0643  0.4912 -0.5091
   43U      H1' 1344   3.101   4.649  -2.648  0.8095 -3.3484  1.5161
   43U       N1 1345   3.092   4.470  -2.749  0.2673  0.3813  0.4112
   43U       C6 1346   3.020   4.354  -2.746  0.3736  0.3016 -0.1939
   43U       H6 1347   2.913   4.353  -2.740  0.4750  0.4008  3.0822
   43U       C5 1348   3.085   4.235  -2.745 -0.3559 -0.0966  0.1285
   43U       H5 1349   3.018   4.150  -2.747 -3.0885  1.9091 -2.1908
   43U       C4 1350   3.228   4.220  -2.755 -0.3685 -0.0290 -0.1575
   43U       O4 1351   3.290   4.114  -2.758 -0.4554 -0.1401  1.1826
   43U       N3 1352   3.293   4.343  -2.759  0.0391 -0.2316  0.1347
   43U       H3 1353   3.393   4.342  -2.743 -0.0667 -3.0498  1.2600
   43U       C2 1354   3.230   4.466  -2.750  0.2576 -0.1628  0.7106
   43U       O2 1355   3.302   4.565  -2.762  0.2271 -0.2025  0.2121
   43U      C3' 1356   2.865   4.665  -2.879  0.0007  0.2933  0.6546
   43U      H3' 1357   2.839   4.567  -2.920  0.3347 -0.5989  2.4921
   43U      C2' 1358   3.014   4.679  -2.852  0.1843  0.6213 -0.4528
   43U     H2'1 1359   3.071   4.647  -2.939  0.5157  1.0907 -0.4103
   43U      O2' 1360   3.032   4.814  -2.814 -0.0856  0.5074  0.0936
   43U     HO'2 1361   2.993   4.855  -2.891 -1.6291 -1.7935 -0.4595
   43U      O3' 1362   2.800   4.760  -2.962 -0.1436 -0.2920  0.0844
   44A        P 1363   2.838   4.778  -3.117  0.1720 -0.0047  0.1927
   44A      O1P 1364   2.739   4.875  -3.170  0.1297 -0.0062  0.2698
   44A      O2P 1365   2.859   4.643  -3.174 -0.5333  0.0630 -0.2386
   44A      O5' 1366   2.981   4.852  -3.110  0.2970 -0.2464  0.1810
   44A      C5' 1367   3.071   4.832  -3.217 -0.2193  0.2532 -0.3580
   44A     H5'1 1368   3.059   4.906  -3.295 -0.3382  0.3056 -0.2912
   44A     H5'2 1369   3.074   4.731  -3.259  1.4606 -0.1471  0.6362
   44A      C4' 1370   3.208   4.866  -3.159 -0.3487 -0.1112  0.1745
   44A      H4' 1371   3.207   4.973  -3.140 -2.1477 -0.2655  1.1154
   44A      O4' 1372   3.256   4.798  -3.045  0.2888  0.3919  0.2140
   44A      C1' 1373   3.379   4.733  -3.065  0.0667 -0.0987  0.4227
   44A      H1' 1374   3.440   4.759  -2.979 -0.7847  1.7974  0.5130
   44A       N9 1375   3.363   4.588  -3.091 -0.1825  0.0667 -0.3776
   44A       C8 1376   3.256   4.513  -3.130 -0.0802 -0.2053 -0.1351
   44A       H8 1377   3.159   4.550  -3.162 -0.4865  1.6397  2.8794
   44A       N7 1378   3.273   4.384  -3.129  0.3301 -0.1500  0.1604
   44A       C5 1379   3.403   4.372  -3.082  0.2648 -0.0084  0.3785
   44A       C6 1380   3.491   4.265  -3.060 -0.1840 -0.4323  0.1313
   44A       N6 1381   3.460   4.135  -3.070 -0.7746 -0.2919  0.1528
   44A      H61 1382   3.364   4.115  -3.095 -1.0775 -0.7218  1.5640
   44A      H62 1383   3.531   4.066  -3.052  2.6773  2.8537 -0.3213
   44A       N1 1384   3.621   4.291  -3.037 -0.3284  0.3628  0.0567
   44A       C2 1385   3.656   4.416  -3.011 -0.4582  0.3768  0.1649
   44A       H2 1386   3.760   4.426  -2.985 -0.6246  0.6215  0.7395
   44A       N3 1387   3.588   4.528  -3.032  0.0227  0.5029 -0.7947
   44A       C4 1388   3.461   4.495  -3.066 -0.1845  0.2241  0.2208
   44A      C3' 1389   3.310   4.830  -3.268 -0.1159  0.1366  0.3104
   44A      H3' 1390   3.282   4.732  -3.306  0.3625 -0.2779  0.9942
   44A      C2' 1391   3.434   4.819  -3.179 -0.0835 -0.2784  0.2140
   44A     H2'1 1392   3.519   4.767  -3.223 -0.2002 -0.3974  0.1294
   44A      O2' 1393   3.477   4.938  -3.118 -0.0062 -0.1597 -0.0693
   44A     HO'2 1394   3.571   4.945  -3.099  0.0929 -0.9621 -0.2321
   44A      O3' 1395   3.315   4.926  -3.371  0.4488 -0.1773  0.0417
   45G        P 1396   3.397   4.897  -3.506 -0.2005 -0.2128 -0.3506
   45G      O1P 1397   3.410   5.024  -3.581  0.0078  0.2603  0.4783
   45G      O2P 1398   3.328   4.783  -3.571 -0.1658 -0.4147 -0.0386
   45G      O5' 1399   3.545   4.845  -3.468 -0.4794 -0.0457  0.9928
   45G      C5' 1400   3.645   4.939  -3.434 -0.5749  0.2816  0.3748
   45G     H5'1 1401   3.607   5.006  -3.357  1.2363  1.0557  0.6374
   45G     H5'2 1402   3.669   4.995  -3.525  1.2893 -1.2944 -0.1607
   45G      C4' 1403   3.769   4.859  -3.397 -0.6346 -0.0461 -0.1176
   45G      H4' 1404   3.856   4.921  -3.374  1.0082 -1.1677 -2.7886
   45G      O4' 1405   3.749   4.761  -3.298 -0.0536  0.0312  0.0827
   45G      C1' 1406   3.825   4.647  -3.330 -0.1678 -0.2497  0.7879
   45G      H1' 1407   3.891   4.628  -3.245  0.6225  2.1282  0.7649
   45G       N9 1408   3.746   4.528  -3.367 -0.2343 -0.0433  0.2507
   45G       C8 1409   3.614   4.527  -3.403 -0.1085 -0.0068 -0.2258
   45G       H8 1410   3.548   4.612  -3.412  0.1794  0.1761 -0.6186
   45G       N7 1411   3.556   4.410  -3.395 -0.0385 -0.0389 -0.1785
   45G       C5 1412   3.663   4.324  -3.372  0.1202  0.1419 -0.2332
   45G       C6 1413   3.663   4.184  -3.347 -0.6141  0.3064  0.7804
   45G       O6 1414   3.572   4.103  -3.358 -0.0195 -0.2905  0.1582
   45G       N1 1415   3.788   4.132  -3.315 -0.6879 -0.2065  0.2501
   45G       H1 1416   3.795   4.034  -3.294  1.9795 -0.7917 -2.6458
   45G       C2 1417   3.894   4.217  -3.295 -0.5169 -0.3196 -0.1610
   45G       N2 1418   3.992   4.145  -3.239 -0.2628 -0.1574 -0.3917
   45G      H21 1419   3.971   4.046  -3.241 -1.6828  0.0753  0.9438
   45G      H22 1420   4.080   4.182  -3.206  1.4543 -2.8185 -1.6399
   45G       N3 1421   3.898   4.351  -3.306  0.1173 -0.3406 -0.2627
   45G       C4 1422   3.777   4.395  -3.346  0.1431  0.0074  0.0371
   45G      C3' 1423   3.820   4.788  -3.522  0.6069 -0.1038  0.4035
   45G      H3' 1424   3.740   4.738  -3.577  0.9813  0.7762 -0.9985
   45G      C2' 1425   3.909   4.688  -3.451 -0.1307 -0.5496  0.7119
   45G     H2'1 1426   3.921   4.600  -3.515 -1.4761  0.2449 -0.6917
   45G      O2' 1427   4.027   4.754  -3.412 -0.0470 -0.1856 -0.1364
   45G     HO'2 1428   4.079   4.765  -3.492  0.8808  1.8662  0.6634
   45G      O3' 1429   3.893   4.876  -3.605  0.5530 -0.0785  0.3817
   46A        P 1430   3.987   4.823  -3.724  0.0211 -0.2199  0.0259
   46A      O1P 1431   4.032   4.944  -3.796  0.0157 -0.0154  0.3662
   46A      O2P 1432   3.923   4.715  -3.804  0.3232 -0.4661  0.1128
   46A      O5' 1433   4.112   4.746  -3.659  0.2056  0.1455  0.1004
   46A      C5' 1434   4.184   4.642  -3.720 -0.4467 -0.1059 -0.2446
   46A     H5'1 1435   4.265   4.686  -3.779 -0.8427  0.1359 -0.6094
   46A     H5'2 1436   4.123   4.572  -3.777  0.1844 -0.6326 -0.2894
   46A      C4' 1437   4.253   4.551  -3.619 -0.0588  0.4879  0.0316
   46A      H4' 1438   4.328   4.616  -3.573 -0.2440 -0.4599  1.7799
   46A      O4' 1439   4.156   4.504  -3.528 -0.0600  0.3970 -0.0173
   46A      C1' 1440   4.161   4.363  -3.521 -0.0247  0.3870 -0.2459
   46A      H1' 1441   4.157   4.335  -3.416  1.4953  2.5897  0.4823
   46A       N9 1442   4.047   4.303  -3.592  0.0118 -0.0357  0.0450
   46A       C8 1443   3.945   4.367  -3.660  0.0515  0.0658  0.0807
   46A       H8 1444   3.947   4.473  -3.680  2.4239 -0.1318 -1.0702
   46A       N7 1445   3.837   4.297  -3.680 -0.1635  0.4755 -0.2062
   46A       C5 1446   3.883   4.173  -3.635 -0.2845  0.5152  0.0282
   46A       C6 1447   3.819   4.048  -3.629 -0.0178  0.3566 -0.4536
   46A       N6 1448   3.695   4.023  -3.673 -0.1774 -0.1484  0.2820
   46A      H61 1449   3.635   4.087  -3.723 -0.7145  0.7144  1.9232
   46A      H62 1450   3.682   3.923  -3.668 -3.0016  0.0780 -0.7792
   46A       N1 1451   3.890   3.946  -3.581 -0.3648  0.0748 -0.5376
   46A       C2 1452   4.014   3.960  -3.538 -0.3459  0.2210 -0.6385
   46A       H2 1453   4.065   3.871  -3.502 -1.2125  0.2256  0.6815
   46A       N3 1454   4.087   4.071  -3.538 -0.0531  0.0300 -0.4228
   46A       C4 1455   4.013   4.170  -3.591 -0.2003  0.0142 -0.2473
   46A      C3' 1456   4.312   4.429  -3.689  0.3119  0.4049  0.4822
   46A      H3' 1457   4.257   4.414  -3.782  0.5565  1.5046  0.1495
   46A      C2' 1458   4.293   4.319  -3.585  0.3406  0.4043  0.4873
   46A     H2'1 1459   4.298   4.223  -3.636  1.3993  0.0444  1.2381
   46A      O2' 1460   4.383   4.319  -3.476  0.2779  0.2182  0.5384
   46A     HO'2 1461   4.457   4.377  -3.495  0.8229 -0.1371  1.5197
   46A      O3' 1462   4.448   4.450  -3.718  0.2412  0.2511  0.0279
   47G        P 1463   4.497   4.424  -3.869  0.1230  0.0259  0.0280
   47G      O1P 1464   4.637   4.467  -3.887  0.2402 -0.4520 -0.2167
   47G      O2P 1465   4.394   4.475  -3.963  0.0533  0.0451  0.1161
   47G      O5' 1466   4.499   4.263  -3.872  0.2141  0.0359 -0.8343
   47G      C5' 1467   4.605   4.196  -3.807 -0.3533 -0.5404 -0.4867
   47G     H5'1 1468   4.618   4.244  -3.710 -1.0665 -1.4668  0.0881
   47G     H5'2 1469   4.686   4.205  -3.880 -1.3827 -1.2779 -1.7757
   47G      C4' 1470   4.584   4.045  -3.800  0.1856 -0.6086 -0.3075
   47G      H4' 1471   4.672   3.995  -3.760 -2.2997 -3.5946  1.8526
   47G      O4' 1472   4.478   4.007  -3.715 -0.1183  0.1086 -0.3556
   47G      C1' 1473   4.406   3.899  -3.770 -0.4155 -0.0798  0.3935
   47G      H1' 1474   4.392   3.830  -3.688 -1.5424 -1.2496 -0.7333
   47G       N9 1475   4.273   3.940  -3.821 -0.4238 -0.3659  0.1817
   47G       C8 1476   4.226   4.065  -3.851  0.1872 -0.3488 -0.7585
   47G       H8 1477   4.284   4.153  -3.828  0.2496 -0.4470 -0.5355
   47G       N7 1478   4.102   4.065  -3.893  0.0808  0.1436 -0.4571
   47G       C5 1479   4.066   3.931  -3.894 -0.4663  0.2721  0.4784
   47G       C6 1480   3.945   3.864  -3.927  0.0398 -0.1474 -0.5974
   47G       O6 1481   3.842   3.917  -3.968 -0.1226 -0.0992 -0.1354
   47G       N1 1482   3.947   3.727  -3.902  0.0823 -0.0387  0.0226
   47G       H1 1483   3.856   3.684  -3.907 -1.3763  2.1444  3.8371
   47G       C2 1484   4.065   3.660  -3.876  0.1553  0.1321  0.1299
   47G       N2 1485   4.059   3.526  -3.874 -1.0489  0.1724  0.0498
   47G      H21 1486   3.968   3.488  -3.892 -0.6959 -1.3588  1.3009
   47G      H22 1487   4.128   3.471  -3.825 -1.4526 -0.2456  0.1517
   47G       N3 1488   4.182   3.719  -3.847  0.5170 -0.1149 -0.7724
   47G       C4 1489   4.172   3.854  -3.856 -0.6388 -0.1170  0.1871
   47G      C3' 1490   4.549   3.981  -3.934  0.0508 -0.4418 -0.3526
   47G      H3' 1491   4.467   4.030  -3.988  0.3609  1.3140  0.6943
   47G      C2' 1492   4.495   3.848  -3.883 -0.1117 -0.0179  0.6062
   47G     H2'1 1493   4.440   3.799  -3.963  0.2684  0.6100 -0.0446
   47G      O2' 1494   4.587   3.754  -3.832 -0.3944 -0.2398  0.7109
   47G     HO'2 1495   4.673   3.759  -3.876 -0.6905 -1.7733 -0.1133
   47G      O3' 1496   4.663   3.958  -4.013  0.4738 -0.1855  0.1825
   48U        P 1497   4.652   3.949  -4.173 -0.2521  0.1259  0.2115
   48U      O1P 1498   4.789   3.932  -4.227 -0.0812  0.5502  0.5055
   48U      O2P 1499   4.572   4.061  -4.228 -0.2805 -0.0613 -0.1295
   48U      O5' 1500   4.577   3.809  -4.197  0.5338 -0.1849 -0.4941
   48U      C5' 1501   4.629   3.685  -4.155 -0.2850 -0.3112  0.1838
   48U     H5'1 1502   4.644   3.679  -4.047  0.7356 -0.4525  0.0432
   48U     H5'2 1503   4.726   3.666  -4.200 -0.9405 -1.8206 -0.6761
   48U      C4' 1504   4.525   3.576  -4.181 -0.2046 -0.3433 -0.0069
   48U      H4' 1505   4.576   3.483  -4.154  0.9503  0.1915 -0.2970
   48U      O4' 1506   4.413   3.590  -4.097 -0.2377  0.1370 -0.1324
   48U      C1' 1507   4.308   3.544  -4.179 -0.0930  0.5529 -0.5564
   48U      H1' 1508   4.258   3.461  -4.129 -1.1096  0.2952 -1.9721
   48U       N1 1509   4.208   3.650  -4.199 -0.4488  0.2353 -0.4655
   48U       C6 1510   4.240   3.782  -4.186  0.7270 -0.1393  0.6636
   48U       H6 1511   4.339   3.810  -4.151 -0.0003  0.0148  2.7120
   48U       C5 1512   4.153   3.883  -4.207  0.6959 -0.3234 -0.1491
   48U       H5 1513   4.179   3.985  -4.183 -1.3461 -0.0107  1.0063
   48U       C4 1514   4.017   3.853  -4.246  0.3068  0.0064  0.8982
   48U       O4 1515   3.929   3.938  -4.259  0.9303  0.4972 -0.3702
   48U       N3 1516   3.993   3.718  -4.267 -0.0999  0.1981  0.0862
   48U       H3 1517   3.897   3.693  -4.286 -0.3412  0.3807  1.0528
   48U       C2 1518   4.085   3.615  -4.251 -0.6367 -0.2522  0.2831
   48U       O2 1519   4.059   3.502  -4.293  0.3083 -0.6808  0.8138
   48U      C3' 1520   4.479   3.558  -4.325 -0.2121  0.2850 -0.0880
   48U      H3' 1521   4.451   3.657  -4.359 -0.4662  0.9977  2.0234
   48U      C2' 1522   4.346   3.483  -4.313 -0.1218  0.0817 -0.3534
   48U     H2'1 1523   4.277   3.508  -4.394 -2.5283  2.3371  2.1727
   48U      O2' 1524   4.365   3.344  -4.299  0.2685  0.1413 -0.2745
   48U     HO'2 1525   4.450   3.329  -4.340  1.6120 -1.7839  2.8314
   48U      O3' 1526   4.575   3.480  -4.392 -0.1599  0.2585  0.0180
   49C        P 1527   4.615   3.500  -4.547 -0.3270 -0.3390 -0.1057
   49C      O1P 1528   4.726   3.405  -4.568 -0.0948 -0.0832 -0.0534
   49C      O2P 1529   4.638   3.645  -4.564 -0.0041 -0.3870 -0.0769
   49C      O5' 1530   4.499   3.444  -4.643  0.1687 -0.3835 -0.6858
   49C      C5' 1531   4.454   3.311  -4.649 -0.3425 -0.2433 -0.1184
   49C     H5'1 1532   4.450   3.257  -4.555 -3.5953 -1.4319 -0.7984
   49C     H5'2 1533   4.512   3.257  -4.724  1.6442  1.4695  0.1189
   49C      C4' 1534   4.308   3.296  -4.692 -0.4926 -0.4257  0.4436
   49C      H4' 1535   4.267   3.196  -4.679 -0.8628 -0.1611  1.3623
   49C      O4' 1536   4.229   3.386  -4.618  0.0934  0.0637  0.4760
   49C      C1' 1537   4.117   3.410  -4.700  0.6052  0.7337 -0.0509
   49C      H1' 1538   4.038   3.340  -4.672  1.1455 -0.4257 -1.3371
   49C       N1 1539   4.057   3.543  -4.681 -0.2059  0.3389  0.2282
   49C       C6 1540   4.135   3.650  -4.716 -0.0673  0.1795  0.0460
   49C       H6 1541   4.235   3.631  -4.751  0.2178 -1.7865  1.7049
   49C       C5 1542   4.086   3.775  -4.698  0.0127  0.2056  0.0780
   49C       H5 1543   4.151   3.856  -4.728  1.1395 -0.6060  0.2530
   49C       C4 1544   3.955   3.789  -4.642  0.0055 -0.2923  0.1901
   49C       N4 1545   3.907   3.912  -4.622 -0.2765 -0.2120 -0.9479
   49C      H41 1546   3.965   3.994  -4.612  0.6312 -0.9483 -0.0951
   49C      H42 1547   3.815   3.916  -4.581  0.0720 -0.9051 -0.0698
   49C       N3 1548   3.875   3.683  -4.623 -0.2938 -0.0196  0.4684
   49C       C2 1549   3.924   3.559  -4.647 -0.3272  0.0761 -0.1227
   49C       O2 1550   3.848   3.464  -4.630  0.2717 -0.4365 -0.2702
   49C      C3' 1551   4.294   3.340  -4.838 -0.0916 -0.3190  0.4368
   49C      H3' 1552   4.360   3.427  -4.844 -1.3656  0.5773 -2.0331
   49C      C2' 1553   4.149   3.387  -4.847  0.0867  0.1425 -0.0772
   49C     H2'1 1554   4.150   3.479  -4.905  1.8169  1.4963  1.9589
   49C      O2' 1555   4.060   3.289  -4.895 -0.0032  0.0966  0.1830
   49C     HO'2 1556   4.073   3.263  -4.986 -0.4265 -2.6372  0.7909
   49C      O3' 1557   4.327   3.238  -4.929 -0.2889 -0.0336  0.0457
   50G        P 1558   4.358   3.262  -5.086  0.3023 -0.1269  0.1457
   50G      O1P 1559   4.445   3.152  -5.133  0.1892 -0.1214 -0.0763
   50G      O2P 1560   4.391   3.406  -5.098 -0.5564  0.1111  0.5236
   50G      O5' 1561   4.213   3.240  -5.152  0.1557  0.0754  0.3947
   50G      C5' 1562   4.152   3.114  -5.167 -0.4225  0.4474 -0.5544
   50G     H5'1 1563   4.142   3.056  -5.074 -1.3038 -0.6912 -1.3321
   50G     H5'2 1564   4.208   3.055  -5.240  0.0877  1.1726 -0.7594
   50G      C4' 1565   4.015   3.153  -5.220 -0.6157 -0.0064 -0.3920
   50G      H4' 1566   3.960   3.060  -5.239  1.4839 -1.1245 -1.2999
   50G      O4' 1567   3.939   3.241  -5.140 -0.2180 -0.3487  0.3730
   50G      C1' 1568   3.888   3.350  -5.213  0.4495 -0.1197  0.2380
   50G      H1' 1569   3.781   3.343  -5.194  0.2099 -1.2950 -1.3375
   50G       N9 1570   3.950   3.477  -5.168 -0.0377  0.3220 -0.3180
   50G       C8 1571   4.073   3.529  -5.197  0.3380 -0.1594  0.3873
   50G       H8 1572   4.137   3.492  -5.276 -1.8991  1.4764 -2.3727
   50G       N7 1573   4.087   3.649  -5.149 -0.2040  0.0762 -0.0362
   50G       C5 1574   3.968   3.683  -5.085 -0.4217  0.0620 -0.4297
   50G       C6 1575   3.921   3.800  -5.020  0.0428 -0.4156  0.8076
   50G       O6 1576   3.979   3.903  -4.987 -0.2113  0.0830 -0.2549
   50G       N1 1577   3.785   3.800  -4.992 -0.2801 -0.2868 -0.6660
   50G       H1 1578   3.748   3.880  -4.943 -0.4493 -0.9975  0.3952
   50G       C2 1579   3.707   3.687  -5.009 -0.0425 -0.6751  0.7374
   50G       N2 1580   3.575   3.695  -4.994 -0.0979  0.1329 -0.0986
   50G      H21 1581   3.525   3.776  -4.960 -0.3739  0.1962 -0.6454
   50G      H22 1582   3.513   3.615  -5.001  0.5862 -0.4034 -0.0851
   50G       N3 1583   3.751   3.577  -5.072 -0.2895 -0.5984  0.4318
   50G       C4 1584   3.882   3.578  -5.105 -0.5679  0.2356 -0.7357
   50G      C3' 1585   4.030   3.222  -5.355  0.4094  0.0257 -0.2656
   50G      H3' 1586   4.114   3.292  -5.353 -0.4364  1.0760 -0.2348
   50G      C2' 1587   3.908   3.313  -5.360  0.4242  0.0728  0.1862
   50G     H2'1 1588   3.933   3.408  -5.408  2.7877  0.0261  1.1866
   50G      O2' 1589   3.787   3.250  -5.398  0.7348 -0.1788 -0.3815
   50G     HO'2 1590   3.808   3.161  -5.427 -0.6566 -1.2007  1.5725
   50G      O3' 1591   4.021   3.123  -5.455 -0.0495  0.1171 -0.3154
   50G      H3T 1592   4.039   3.164  -5.540  0.4964  0.6641  0.0509
   51SOL     OW 1593   2.031   3.700   0.289 -0.0352  0.1289  0.6332
   51SOL    HW1 1594   2.005   3.617   0.249 -1.1580  1.0295 -0.5979
   51SOL    HW2 1595   2.087   3.742   0.225 -1.4128  1.3470  0.1543
   52SOL     OW 1596   4.936   1.804   5.468 -0.1077 -0.4298  0.1514
   52SOL    HW1 1597   4.978   1.856   5.536 -1.3551  0.2094  0.4609
   52SOL    HW2 1598   5.003   1.741   5.442  1.0821  0.6458  0.5062
   53SOL     OW 1599   6.248   2.333   4.469 -0.3455  0.3221  0.1526
   53SOL    HW1 1600   6.173   2.315   4.412  0.1560  0.3346 -0.5272
   53SOL    HW2 1601   6.324   2.326   4.411  0.1916  0.1570  0.8670
   54SOL     OW 1602   7.903   0.723   0.552 -0.0789 -0.4202 -0.0340
   54SOL    HW1 1603   7.823   0.776   0.557 -1.4418 -2.2309 -1.1528
   54SOL    HW2 1604   7.940   0.727   0.640 -2.5706 -1.1994  1.1366
   55SOL     OW 1605   3.412   2.309   3.022  0.0030 -0.1338 -0.1496
   55SOL    HW1 1606   3.414   2.348   2.934  0.9433  0.5516  0.1633
   55SOL    HW2 1607   3.326   2.268   3.028 -0.4618  0.6837 -1.0152
   56SOL     OW 1608   2.570   3.089   7.605  0.1289  0.1845 -0.3065
   56SOL    HW1 1609   2.628   3.073   7.679  0.5141  0.6321 -0.5112
   56SOL    HW2 1610   2.609   3.041   7.532 -1.0661 -1.5346  0.1214
   57SOL     OW 1611   4.266   0.660   7.793  0.2234 -0.3138 -0.3266
   57SOL    HW1 1612   4.310   0.604   7.729  0.7198  1.0473 -1.1901
   57SOL    HW2 1613   4.337   0.688   7.852 -0.0766 -0.7887  0.2802
   58SOL     OW 1614   2.093   2.856   1.924  0.5653  0.1887  0.2173
   58SOL    HW1 1615   2.118   2.923   1.988 -0.2812 -0.3872  1.1736
   58SOL    HW2 1616   1.998   2.857   1.923  0.5352  1.4211 -2.3992
   59SOL     OW 1617   4.171   6.533   1.575  0.2935  0.1369  0.3975
   59SOL    HW1 1618   4.233   6.510   1.506  0.9943  0.8573  0.7695
   59SOL    HW2 1619   4.107   6.589   1.532 -0.5728 -1.2519 -0.1694
   60SOL     OW 1620   3.632   5.870   2.455 -0.0683 -0.2871 -0.2975
   60SOL    HW1 1621   3.678   5.789   2.432  0.7077  0.1356 -0.2644
   60SOL    HW2 1622   3.593   5.900   2.373  1.5970  0.5229 -0.8492
   61SOL     OW 1623   1.295   6.190   3.825  0.4227  0.1453 -0.0943
   61SOL    HW1 1624   1.335   6.107   3.851 -0.0314 -0.6528 -1.7990
   61SOL    HW2 1625   1.271   6.177   3.733 -0.2807  1.9342 -0.1967
   62SOL     OW 1626   7.270   6.779   4.722  0.2996 -0.0518 -1.1444
   62SOL    HW1 1627   7.215   6.755   4.796  0.9201  1.7738 -0.0199
   62SOL    HW2 1628   7.209   6.809   4.655 -0.2017 -0.6706 -0.9786
   63SOL     OW 1629   3.028   7.432   1.476  0.1473  0.4644  0.4136
   63SOL    HW1 1630   3.041   7.497   1.407  0.0715 -0.0781 -0.1153
   63SOL    HW2 1631   2.941   7.453   1.511 -0.7189 -0.5145 -1.0427
   64SOL     OW 1632   7.944   1.907   0.030  0.3735  0.6747  0.7767
   64SOL    HW1 1633   7.868   1.925   0.086  0.7974 -1.3908  2.1524
   64SOL    HW2 1634   8.015   1.958   0.068  0.1865  0.8744  0.8602
   65SOL     OW 1635   6.885   0.195   7.954  0.5088 -0.0970 -0.4989
   65SOL    HW1 1636   6.845   0.112   7.927  0.2368 -0.1998  0.2092
   65SOL    HW2 1637   6.868   0.254   7.880  0.7772 -0.6872 -1.0448
   66SOL     OW 1638   7.165   3.073  10.397 -0.0838 -0.1636 -0.3054
   66SOL    HW1 1639   7.258   3.054  10.414 -0.4946 -1.1765  0.9857
   66SOL    HW2 1640   7.134   2.999  10.346 -0.1307  0.3054 -0.9662
   67SOL     OW 1641   4.166   3.510   6.279  0.0885  0.8638  0.2684
   67SOL    HW1 1642   4.137   3.427   6.317 -0.6679  1.6076  1.3547
   67SOL    HW2 1643   4.190   3.488   6.189 -2.0587 -0.1445 -0.1133
   68SOL     OW 1644   5.838   4.293   2.816 -0.2967 -0.7551 -0.4451
   68SOL    HW1 1645   5.933   4.282   2.828  0.3302  3.8562  0.7906
   68SOL    HW2 1646   5.800   4.267   2.900  0.6277  2.1913  1.0284
   69SOL     OW 1647   7.464   3.326  10.514  0.0007 -0.2419 -0.0642
   69SOL    HW1 1648   7.465   3.246  10.461 -1.9432  0.1041 -0.7128
   69SOL    HW2 1649   7.499   3.394  10.457 -2.8727  0.3037 -1.3193
   70SOL     OW 1650   5.647   1.106   1.405 -0.1509 -0.3932 -0.3702
   70SOL    HW1 1651   5.644   1.161   1.327 -1.3083  2.2014  1.3623
   70SOL    HW2 1652   5.664   1.018   1.372 -0.3611  0.6285 -3.4980
   71SOL     OW 1653   0.331   2.466   8.018  0.0892  0.1747 -0.1082
   71SOL    HW1 1654   0.245   2.499   8.047 -0.5418 -1.0223 -0.5250
   71SOL    HW2 1655   0.312   2.379   7.984  1.7744 -0.9033  1.5379
   72SOL     OW 1656   0.865   3.620   6.761 -0.0647  0.2698 -0.4850
   72SOL    HW1 1657   0.884   3.632   6.854 -0.1451  0.9551 -0.5482
   72SOL    HW2 1658   0.793   3.681   6.744  0.8191  1.1263 -1.2782
   73SOL     OW 1659   7.504   7.398   4.695 -0.1239 -0.3314 -0.1786
   73SOL    HW1 1660   7.565   7.361   4.759  0.8817 -0.4988 -1.1937
   73SOL    HW2 1661   7.559   7.416   4.618 -1.3851 -0.5517 -1.1525
   74SOL     OW 1662   4.281   4.913  11.365  0.0440  0.1013  0.6673
   74SOL    HW1 1663   4.201   4.866  11.343 -0.3592  0.0919  2.0487
   74SOL    HW2 1664   4.300   4.965  11.287 -1.1202 -0.1517  0.1881
   75SOL     OW 1665   2.822   3.027   5.935  0.9819  0.7292  0.5892
   75SOL    HW1 1666   2.781   3.111   5.957  0.2449  0.2584  1.0584
   75SOL    HW2 1667   2.752   2.962   5.946  0.9670  0.2587 -1.6701
   76SOL     OW 1668   7.952   3.636   7.296 -0.0587  0.1484 -0.2196
   76SOL    HW1 1669   7.955   3.731   7.302  0.8979  0.3115 -2.2751
   76SOL    HW2 1670   8.005   3.615   7.219  4.3357 -2.3809  2.9953
   77SOL     OW 1671   4.781   1.996   0.458 -0.0007  0.6992 -0.6045
   77SOL    HW1 1672   4.775   1.927   0.524  0.0087 -1.1016 -2.3929
   77SOL    HW2 1673   4.875   2.015   0.452  0.0362  0.5853 -0.3952
   78SOL     OW 1674   7.678   0.619   0.160  0.2968 -0.6754 -0.3537
   78SOL    HW1 1675   7.743   0.606   0.091  0.2811  2.5081 -1.1322
   78SOL    HW2 1676   7.637   0.703   0.139 -0.2900  0.0663  3.1023
   79SOL     OW 1677   0.103   4.028   4.331  0.1662  0.0374 -0.0907
   79SOL    HW1 1678   0.046   3.952   4.341  1.3301 -0.9488 -0.7263
   79SOL    HW2 1679   0.043   4.101   4.315 -0.9101 -1.0277 -1.0504
   80SOL     OW 1680   6.599   2.027   5.117  0.1622  0.0060  0.6410
   80SOL    HW1 1681   6.688   2.047   5.145  0.2542 -1.0799  1.1562
   80SOL    HW2 1682   6.589   2.074   5.035  1.9409 -1.4805 -0.5117
   81SOL     OW 1683   7.250   2.225   8.929 -0.3040 -0.8143  0.4145
   81SOL    HW1 1684   7.332   2.272   8.917  0.0641 -1.7091 -0.8024
   81SOL    HW2 1685   7.238   2.221   9.023 -0.1365  1.3042  0.5718
   82SOL     OW 1686   5.057   0.692  10.955 -0.1784  0.0097 -0.1072
   82SOL    HW1 1687   5.139   0.738  10.970  1.2713 -1.9753 -1.3604
   82SOL    HW2 1688   5.051   0.630  11.028  0.6086 -1.2883 -1.0771
   83SOL     OW 1689   1.942   5.483  11.637  0.4691  0.4914  0.5535
   83SOL    HW1 1690   1.936   5.405  11.693  0.1186  0.8575  1.0366
   83SOL    HW2 1691   1.891   5.549  11.683 -1.6849  0.2101 -1.2470
   84SOL     OW 1692   7.641   5.896   7.078  0.4199 -0.7802  0.1617
   84SOL    HW1 1693   7.678   5.819   7.123  2.0315  0.8846  1.8809
   84SOL    HW2 1694   7.556   5.909   7.120  0.1541 -1.5914 -0.1126
   85SOL     OW 1695   2.564   7.055   7.217 -0.4797  0.3681 -0.4666
   85SOL    HW1 1696   2.621   7.034   7.291 -0.1972 -1.4473 -1.1425
   85SOL    HW2 1697   2.475   7.042   7.250 -0.3360 -0.9908 -0.5861
   86SOL     OW 1698   0.787   7.249   5.987  0.2267 -0.1893  0.5051
   86SOL    HW1 1699   0.718   7.182   5.983  1.3650 -1.5120  1.6316
   86SOL    HW2 1700   0.850   7.223   5.920  0.4781 -0.0180  0.6718
   87SOL     OW 1701   6.071   1.854   7.883 -0.4910  0.6688 -0.3607
   87SOL    HW1 1702   6.011   1.854   7.809 -0.1877 -0.5179 -0.6259
   87SOL    HW2 1703   6.054   1.771   7.927 -0.8798  1.4822  1.0940
   88SOL     OW 1704   3.522   4.996  12.439 -0.0058  0.3314 -0.1273
   88SOL    HW1 1705   3.505   4.952  12.522  0.4795  3.8735  2.0427
   88SOL    HW2 1706   3.437   5.032  12.413  0.5215  2.5143  0.9896
   89SOL     OW 1707   7.761   1.593   9.210  0.0531 -0.3888  0.4465
   89SOL    HW1 1708   7.720   1.567   9.128  2.5568  0.6125 -1.2482
   89SOL    HW2 1709   7.846   1.628   9.184  0.7653  0.3935  3.4536
   90SOL     OW 1710   7.857   1.859   2.736 -0.7320 -0.4173  0.1394
   90SOL    HW1 1711   7.920   1.872   2.806 -1.9439  0.0281  1.1861
   90SOL    HW2 1712   7.790   1.801   2.773  0.2521 -2.9548 -1.7347
   91SOL     OW 1713   7.778   3.333   8.267 -0.0933 -0.5301 -0.3874
   91SOL    HW1 1714   7.849   3.387   8.300 -0.4102  0.0331 -0.5966
   91SOL    HW2 1715   7.813   3.292   8.188  0.3560 -1.1304  0.1284
   92SOL     OW 1716   6.686   5.578   2.693 -0.0749  0.1681  0.2037
   92SOL    HW1 1717   6.646   5.655   2.735 -0.0232  0.3841 -0.1398
   92SOL    HW2 1718   6.615   5.538   2.643 -0.4247 -0.7275  1.3651
   93SOL     OW 1719   3.894   0.777   8.450 -0.2920 -0.2654  0.2664
   93SOL    HW1 1720   3.877   0.721   8.526  1.3778  1.4009  1.9569
   93SOL    HW2 1721   3.810   0.820   8.434 -0.4544  0.0524  1.7970
   94SOL     OW 1722   5.913   4.199   6.569 -0.1419 -0.1947  0.0443
   94SOL    HW1 1723   5.972   4.143   6.519 -1.8527 -1.2046 -0.9290
   94SOL    HW2 1724   5.826   4.179   6.535 -0.8081  3.6371 -0.9526
   95SOL     OW 1725   6.497   3.622   2.620  0.0937  0.0826 -0.0802
   95SOL    HW1 1726   6.553   3.636   2.696 -1.0835  0.0596  0.8157
   95SOL    HW2 1727   6.558   3.613   2.547  1.3819 -1.9008  1.1420
   96SOL     OW 1728   3.563   3.022   2.426  0.2728 -0.3007  0.1384
   96SOL    HW1 1729   3.470   3.012   2.407  0.2742  3.0272 -2.6518
   96SOL    HW2 1730   3.607   2.994   2.347  1.1929  2.7853 -0.5722
   97SOL     OW 1731   7.209   3.935   1.693  0.5408  0.5384 -0.4561
   97SOL    HW1 1732   7.242   3.846   1.680  0.7545  0.4447  0.6230
   97SOL    HW2 1733   7.205   3.945   1.788 -0.9734  1.1389 -0.5669
   98SOL     OW 1734   2.492   2.553  11.103 -0.2530  0.1451  0.3314
   98SOL    HW1 1735   2.398   2.568  11.093  0.0312  1.6648 -0.4589
   98SOL    HW2 1736   2.521   2.524  11.016 -0.0234 -0.5668  0.6399
   99SOL     OW 1737   1.357   3.435   2.382  0.0894 -0.2699  0.4354
   99SOL    HW1 1738   1.305   3.370   2.335 -0.4371  0.5909 -0.1876
   99SOL    HW2 1739   1.428   3.384   2.422  1.0402 -0.9724 -1.9441
  100SOL     OW 1740   3.632   0.075   5.924  0.2445 -0.1566 -0.5172
  100SOL    HW1 1741   3.648   0.011   5.855 -0.0737 -0.3253 -0.4380
  100SOL    HW2 1742   3.697   0.144   5.909  0.8681 -0.6937 -0.3571
  101SOL     OW 1743   0.347   0.282   1.783 -0.2361 -0.1271  0.1362
  101SOL    HW1 1744   0.415   0.231   1.740 -0.6066 -0.7755  0.2980
  101SOL    HW2 1745   0.348   0.251   1.874 -1.2505 -0.7001 -0.0315
  102SOL     OW 1746   7.494   5.068  12.041  0.4535 -0.2643 -0.2020
  102SOL    HW1 1747   7.410   5.089  11.999 -0.3796 -1.4362  0.8176
  102SOL    HW2 1748   7.536   5.007  11.980  0.6832  0.4679 -0.8047
  103SOL     OW 1749   2.100   3.666   6.738 -0.2832 -0.7382  0.2305
  103SOL    HW1 1750   2.070   3.670   6.829  1.8511 -0.4112  0.9632
  103SOL    HW2 1751   2.103   3.757   6.709 -0.0804 -0.7756  0.1329
  104SOL     OW 1752   5.191   5.309   3.221 -0.3589  0.3478  0.0043
  104SOL    HW1 1753   5.225   5.220   3.236  3.3623  1.5472 -0.2512
  104SOL    HW2 1754   5.182   5.345   3.309  1.7457  0.8288  0.0748
  105SOL     OW 1755   3.428   5.333   2.806 -0.4478  1.2015  0.3588
  105SOL    HW1 1756   3.368   5.323   2.879  0.0818  0.6924  0.7404
  105SOL    HW2 1757   3.374   5.317   2.728 -0.7119  0.2823  0.7175
  106SOL     OW 1758   0.419   3.163   0.025 -0.2135 -0.2304 -0.3143
  106SOL    HW1 1759   0.432   3.106  -0.051  0.8627 -0.8535  0.3136
  106SOL    HW2 1760   0.385   3.105   0.093  0.2905  0.0007  0.1390
  107SOL     OW 1761   1.560   5.714   9.675 -0.2787  0.4166 -0.1496
  107SOL    HW1 1762   1.559   5.651   9.603 -0.4216  2.1680 -1.7510
  107SOL    HW2 1763   1.468   5.726   9.699 -0.4035  1.2185 -0.9786
  108SOL     OW 1764   7.502   4.447  11.523  0.0160  1.6108  0.0364
  108SOL    HW1 1765   7.539   4.425  11.438  2.1628  3.2146  0.4775
  108SOL    HW2 1766   7.407   4.440  11.510  0.2789  1.9321 -2.5161
  109SOL     OW 1767   5.477   6.972   7.921 -0.0882 -0.3670  0.1675
  109SOL    HW1 1768   5.430   6.961   7.839 -1.2096  1.9579  0.4193
  109SOL    HW2 1769   5.568   6.951   7.900  0.4070  3.6132 -2.7198
  110SOL     OW 1770   1.194   6.783  11.602  0.0684 -1.0582 -0.0045
  110SOL    HW1 1771   1.182   6.703  11.654  1.0181 -1.2109  0.0039
  110SOL    HW2 1772   1.286   6.806  11.616 -0.3432  0.3849  0.4664
  111SOL     OW 1773   0.824   0.877   6.962  0.7150 -0.1635 -0.2749
  111SOL    HW1 1774   0.758   0.941   6.935  0.0515 -1.0796 -0.8925
  111SOL    HW2 1775   0.798   0.852   7.050 -0.1258 -0.9395 -0.7223
  112SOL     OW 1776   3.193   3.144   6.004 -0.1485 -0.3888 -0.0339
  112SOL    HW1 1777   3.132   3.190   6.063 -2.3116 -2.0613 -0.8186
  112SOL    HW2 1778   3.145   3.066   5.976  1.4847 -0.5986 -2.5890
  113SOL     OW 1779   5.696   3.809   0.819  0.3361 -0.0436 -0.2014
  113SOL    HW1 1780   5.658   3.754   0.751 -0.7202 -0.0881  0.4107
  113SOL    HW2 1781   5.623   3.861   0.852  1.0568  0.7848  0.1340
  114SOL     OW 1782   1.273   2.126   9.210  0.7771  0.5128  0.5054
  114SOL    HW1 1783   1.251   2.101   9.120  2.1751  1.1184 -0.0209
  114SOL    HW2 1784   1.368   2.120   9.214  0.7726  1.0768  1.7765
  115SOL     OW 1785   6.452   1.509   3.394 -0.2038  0.3698 -0.9884
  115SOL    HW1 1786   6.452   1.518   3.299  0.9818  0.5832 -0.9779
  115SOL    HW2 1787   6.527   1.561   3.424 -1.7610  2.0486  0.2442
  116SOL     OW 1788   6.962   5.371  10.241 -0.4650  0.3832 -0.4632
  116SOL    HW1 1789   6.967   5.297  10.302 -0.6777  1.3526  0.7773
  116SOL    HW2 1790   7.049   5.410  10.243 -0.5580  0.5972 -0.5670
  117SOL     OW 1791   6.714   7.298   1.073 -0.3584  0.5907 -0.3300
  117SOL    HW1 1792   6.774   7.225   1.091 -0.6409  0.8284  1.7454
  117SOL    HW2 1793   6.638   7.282   1.128 -1.1517  1.6008 -1.0835
  118SOL     OW 1794   3.887   6.463   8.056  0.1736 -0.1942 -0.2905
  118SOL    HW1 1795   3.909   6.388   8.112  1.6782  1.0096  0.8575
  118SOL    HW2 1796   3.835   6.521   8.113 -1.1933 -0.4617 -1.2403
  119SOL     OW 1797   4.164   4.214   7.444 -0.3009  0.3394  0.1476
  119SOL    HW1 1798   4.078   4.241   7.412  0.0563  1.7403  0.3366
  119SOL    HW2 1799   4.199   4.159   7.374 -0.5038  1.4408 -0.8581
  120SOL     OW 1800   3.236   7.428   4.827  0.0154  0.5997  0.4464
  120SOL    HW1 1801   3.314   7.394   4.871  0.6631 -0.3541 -1.3181
  120SOL    HW2 1802   3.226   7.371   4.750 -0.3671  2.8314 -1.2579
  121SOL     OW 1803   3.205   0.085   7.209  0.0468 -0.2824 -0.3545
  121SOL    HW1 1804   3.180   0.143   7.281 -1.3100  1.2079 -1.9228
  121SOL    HW2 1805   3.135   0.020   7.206 -0.0779 -0.1440 -0.5086
  122SOL     OW 1806   0.891   5.729   6.770 -0.7217  0.5491 -0.1157
  122SOL    HW1 1807   0.876   5.801   6.832 -2.5288  1.1032 -1.1216
  122SOL    HW2 1808   0.901   5.772   6.685 -0.5852 -0.3219 -0.5517
  123SOL     OW 1809   4.865   6.380   1.440  0.3374 -1.1297 -0.7364
  123SOL    HW1 1810   4.837   6.289   1.436  0.6168 -1.1825 -2.5656
  123SOL    HW2 1811   4.790   6.430   1.407  0.5873 -0.7997 -0.8158
  124SOL     OW 1812   2.125   2.193   6.806 -0.0646  0.1764  0.1915
  124SOL    HW1 1813   2.166   2.213   6.721  0.6514 -0.1108  0.4603
  124SOL    HW2 1814   2.106   2.100   6.802 -0.6229  0.2880  0.1087
  125SOL     OW 1815   3.785   4.859  11.174  0.3838 -0.2993  0.1543
  125SOL    HW1 1816   3.763   4.828  11.086  0.8808  0.9172 -0.4313
  125SOL    HW2 1817   3.727   4.811  11.232  0.0293 -1.1099 -0.8438
  126SOL     OW 1818   5.267   1.486  12.040 -0.1571 -0.5260  0.6468
  126SOL    HW1 1819   5.315   1.416  11.995 -1.1236 -0.0697 -1.1830
  126SOL    HW2 1820   5.176   1.459  12.036 -0.6768  1.2274 -0.9905
  127SOL     OW 1821   7.857   3.725   8.589 -0.1179  0.1204  0.3716
  127SOL    HW1 1822   7.772   3.747   8.628 -0.0582  1.2183 -0.0851
  127SOL    HW2 1823   7.889   3.808   8.552  0.5786 -0.5411 -0.5620
  128SOL     OW 1824   6.817   1.192   3.353  0.0454  0.1061 -0.0113
  128SOL    HW1 1825   6.890   1.232   3.307  0.8512 -0.0031  1.1225
  128SOL    HW2 1826   6.739   1.225   3.309  0.6983  2.4061  0.4546
  129SOL     OW 1827   1.256   6.522  10.550  0.0914 -0.3308  0.1260
  129SOL    HW1 1828   1.270   6.616  10.558 -1.1820 -0.2687  2.3240
  129SOL    HW2 1829   1.257   6.506  10.455 -0.4435  2.0218 -0.3453
  130SOL     OW 1830   6.719   3.734   9.253  1.3381 -0.0220  0.4692
  130SOL    HW1 1831   6.745   3.781   9.333  1.7506 -0.6877  0.7287
  130SOL    HW2 1832   6.801   3.705   9.214  1.0316 -2.3728  1.4292
  131SOL     OW 1833   4.546   4.450   6.468  0.2434  0.2746 -0.0359
  131SOL    HW1 1834   4.607   4.462   6.395 -0.9328  0.5875 -1.0016
  131SOL    HW2 1835   4.475   4.399   6.431 -1.2169  1.9050  0.3929
  132SOL     OW 1836   6.359   0.951   0.051 -0.1016 -0.1614 -0.0701
  132SOL    HW1 1837   6.359   0.930   0.145  0.1929 -0.1078 -0.0580
  132SOL    HW2 1838   6.435   0.905   0.016 -0.2082 -0.1767 -0.2841
  133SOL     OW 1839   7.372   7.638   8.283 -0.0424  0.0885 -0.5438
  133SOL    HW1 1840   7.319   7.559   8.266  0.4363 -0.3406 -0.0862
  133SOL    HW2 1841   7.370   7.686   8.201 -1.0110 -0.0008 -0.5862
  134SOL     OW 1842   0.520   4.296   4.379  0.3101  0.2006  0.2392
  134SOL    HW1 1843   0.488   4.205   4.379 -0.1947  0.3685 -0.3951
  134SOL    HW2 1844   0.544   4.313   4.288  0.5944  0.6390  0.3936
  135SOL     OW 1845   2.787   7.388   8.804 -0.5495  0.1635 -0.0833
  135SOL    HW1 1846   2.834   7.393   8.887 -1.2173  0.3017  0.2929
  135SOL    HW2 1847   2.720   7.456   8.810 -1.7448 -1.0079 -0.0143
  136SOL     OW 1848   7.019   7.349  10.721  0.5598 -0.3199 -0.1503
  136SOL    HW1 1849   7.112   7.328  10.726  0.1184 -2.1967  1.2607
  136SOL    HW2 1850   6.976   7.265  10.705 -0.9123  0.5304 -0.9201
  137SOL     OW 1851   1.339   0.430   0.862 -0.1088  0.4943 -0.3837
  137SOL    HW1 1852   1.353   0.442   0.769 -0.7025 -1.1977 -0.7176
  137SOL    HW2 1853   1.423   0.397   0.895 -0.3093 -0.2338 -0.5858
  138SOL     OW 1854   6.494   7.841   1.001  0.0917  0.5709 -0.4515
  138SOL    HW1 1855   6.573   7.787   1.009 -0.6354 -0.4544  0.0524
  138SOL    HW2 1856   6.456   7.841   1.089 -2.5079 -2.1936 -1.3947
  139SOL     OW 1857   7.807   0.667   7.766  0.1563  0.2897  0.1031
  139SOL    HW1 1858   7.743   0.647   7.697 -0.3894 -0.2300  0.7591
  139SOL    HW2 1859   7.841   0.582   7.793 -1.3830  0.2544  2.1392
  140SOL     OW 1860   3.633   1.463   2.184 -0.4075  0.1214 -0.2044
  140SOL    HW1 1861   3.580   1.403   2.131 -0.7551  0.2406  0.0065
  140SOL    HW2 1862   3.722   1.451   2.151 -0.6965  0.6238 -1.2251
  141SOL     OW 1863   2.551   1.120   5.706  0.0182  0.5387 -0.2441
  141SOL    HW1 1864   2.550   1.029   5.676  1.5819  0.4736 -0.1985
  141SOL    HW2 1865   2.584   1.114   5.796  1.7126  1.2401 -0.7680
  142SOL     OW 1866   1.652   2.786   3.350  0.0479 -0.4217  0.5090
  142SOL    HW1 1867   1.568   2.811   3.389 -1.1321 -0.9276 -1.5899
  142SOL    HW2 1868   1.713   2.851   3.384 -1.9673  2.4411 -0.9021
  143SOL     OW 1869   3.134   5.860   1.250 -0.3453  0.2133 -0.4555
  143SOL    HW1 1870   3.108   5.905   1.331  0.3396 -0.9840  0.4600
  143SOL    HW2 1871   3.113   5.768   1.265 -1.8519  0.1787 -2.3527
  144SOL     OW 1872   6.785   4.982   8.930 -0.6758  0.5732  0.3819
  144SOL    HW1 1873   6.785   5.077   8.923 -1.2296  0.7229  2.1178
  144SOL    HW2 1874   6.778   4.964   9.024 -1.6994 -1.1812  0.0205
  145SOL     OW 1875   1.137   6.302   7.921 -0.9356  0.2384 -0.0098
  145SOL    HW1 1876   1.066   6.302   7.985  0.5249  0.4235  1.6700
  145SOL    HW2 1877   1.095   6.273   7.840 -2.9907  0.6643  0.8245
  146SOL     OW 1878   4.540   7.782   8.671 -0.5264 -0.7952 -0.7096
  146SOL    HW1 1879   4.496   7.844   8.730  1.0706 -0.1406 -0.1529
  146SOL    HW2 1880   4.564   7.834   8.595 -0.2992 -1.0372 -0.8038
  147SOL     OW 1881   0.960   4.936   8.349  0.0429  0.2249  0.2635
  147SOL    HW1 1882   1.003   4.931   8.264 -2.1729  2.5373 -1.1742
  147SOL    HW2 1883   1.023   4.981   8.406  0.8013  0.4954 -0.7657
  148SOL     OW 1884   6.258   7.698  11.671  0.2944  0.0196  0.1786
  148SOL    HW1 1885   6.175   7.695  11.719  0.5820 -0.2058  0.6759
  148SOL    HW2 1886   6.264   7.613  11.628 -0.2896  0.4783 -0.8282
  149SOL     OW 1887   2.177   5.189  12.249  0.4724  0.3479  0.6639
  149SOL    HW1 1888   2.252   5.163  12.301  0.4799 -1.5000 -0.1617
  149SOL    HW2 1889   2.214   5.235  12.174  0.8438 -0.7608  0.1395
  150SOL     OW 1890   5.637   6.551   0.593 -0.3381 -0.3604  0.1144
  150SOL    HW1 1891   5.673   6.464   0.577  1.9154  0.4422  0.4495
  150SOL    HW2 1892   5.697   6.610   0.548 -1.8911  1.0300 -0.2022
  151SOL     OW 1893   5.692   6.985   3.399  0.0242 -0.1883 -0.2990
  151SOL    HW1 1894   5.626   7.005   3.333 -0.7902 -0.8056  0.3134
  151SOL    HW2 1895   5.643   6.957   3.476  0.9907 -0.5847  0.2033
  152SOL     OW 1896   1.371   7.622  11.520  0.3918 -0.2478 -0.5218
  152SOL    HW1 1897   1.308   7.551  11.508 -0.4326  0.4692 -0.5512
  152SOL    HW2 1898   1.382   7.630  11.615 -0.7397  0.6167 -0.4484
  153SOL     OW 1899   3.074   6.930   9.717 -0.4090 -0.6924  0.0170
  153SOL    HW1 1900   3.147   6.959   9.772 -0.2701  0.6299 -0.8131
  153SOL    HW2 1901   3.026   6.867   9.771 -0.1831  0.4180  1.5625
  154SOL     OW 1902   2.096   2.592  10.901 -0.2351  0.1394 -0.0443
  154SOL    HW1 1903   2.082   2.498  10.915  0.1985  0.0582 -0.1369
  154SOL    HW2 1904   2.161   2.617  10.966  0.6024  0.0956 -0.8463
  155SOL     OW 1905   1.152   6.844   9.434 -0.3404  0.1619 -0.3276
  155SOL    HW1 1906   1.074   6.868   9.483 -2.1035 -0.2382 -2.7322
  155SOL    HW2 1907   1.118   6.809   9.351  2.3945 -0.3855 -1.3184
  156SOL     OW 1908   0.817   3.223   9.261  0.4303  0.2648 -0.1551
  156SOL    HW1 1909   0.749   3.196   9.324  1.7361 -1.5257  0.5845
  156SOL    HW2 1910   0.801   3.316   9.247 -0.5550  0.5062  2.0556
  157SOL     OW 1911   5.885   5.188   4.168  0.4349 -0.0775  0.2381
  157SOL    HW1 1912   5.900   5.145   4.252 -1.5970 -0.5159  0.4311
  157SOL    HW2 1913   5.857   5.117   4.110 -0.7702  0.6114 -0.0559
  158SOL     OW 1914   1.709   6.300  11.407 -0.0032  0.4503 -0.2168
  158SOL    HW1 1915   1.641   6.332  11.347 -1.2125 -0.6147  0.5308
  158SOL    HW2 1916   1.756   6.378  11.434 -2.5123  1.6090  1.1639
  159SOL     OW 1917   5.183   1.412  10.696  0.2966 -0.8608 -0.3188
  159SOL    HW1 1918   5.122   1.466  10.646 -0.1817 -0.7296  0.3901
  159SOL    HW2 1919   5.134   1.331  10.715 -0.0466 -0.3646  1.0940
  160SOL     OW 1920   6.203   5.804   3.204 -0.3574  0.0615  0.1762
  160SOL    HW1 1921   6.287   5.846   3.226  0.1506 -1.1619  0.6300
  160SOL    HW2 1922   6.173   5.765   3.286 -0.2102 -1.5070 -0.4864
  161SOL     OW 1923   7.482   6.248   2.378 -0.8757 -0.4331 -0.1117
  161SOL    HW1 1924   7.499   6.341   2.389  0.9436 -0.8400  0.9744
  161SOL    HW2 1925   7.419   6.226   2.447 -2.1154  0.1483 -1.0176
  162SOL     OW 1926   6.888   3.723   6.872 -0.6966 -0.1072 -0.1936
  162SOL    HW1 1927   6.899   3.760   6.785  3.1871  1.1596  0.6176
  162SOL    HW2 1928   6.845   3.792   6.923  0.3799  0.6538 -0.2854
  163SOL     OW 1929   2.534   3.057   9.707 -0.4415  0.3588 -0.2947
  163SOL    HW1 1930   2.507   3.099   9.626  1.7469  1.7015 -0.4154
  163SOL    HW2 1931   2.593   2.987   9.680 -1.1711 -0.4310  0.0904
  164SOL     OW 1932   1.730   3.203   6.960 -0.2171 -0.1024  0.2730
  164SOL    HW1 1933   1.749   3.245   7.044  0.1746  0.4897 -0.0967
  164SOL    HW2 1934   1.742   3.273   6.896 -1.2479 -0.3520 -0.2145
  165SOL     OW 1935   2.433   6.505   1.809 -0.3123  0.2546 -0.0149
  165SOL    HW1 1936   2.411   6.546   1.725 -1.2860 -1.5283 -0.6878
  165SOL    HW2 1937   2.527   6.520   1.819  0.0299 -0.3363 -1.9464
  166SOL     OW 1938   0.840   5.793   0.277 -0.0612 -0.1439  0.2816
  166SOL    HW1 1939   0.792   5.867   0.314 -1.3504 -1.7527  2.0201
  166SOL    HW2 1940   0.779   5.752   0.216 -0.4278 -1.3777  1.4374
  167SOL     OW 1941   6.113   3.528  10.913 -0.1248  0.0837  0.4246
  167SOL    HW1 1942   6.103   3.620  10.937 -0.4591  0.1684 -0.0375
  167SOL    HW2 1943   6.151   3.487  10.992  2.0195  0.9892 -0.0547
  168SOL     OW 1944   6.110   4.069   9.060 -0.4687  0.3573  0.1994
  168SOL    HW1 1945   6.190   4.018   9.066 -0.4773  0.1265 -1.2532
  168SOL    HW2 1946   6.127   4.148   9.111  0.6899  0.3136 -0.1076
  169SOL     OW 1947   2.352   4.795   3.641  0.5834 -0.6321 -0.8412
  169SOL    HW1 1948   2.320   4.715   3.684 -0.0516  0.1953  0.2884
  169SOL    HW2 1949   2.330   4.784   3.549 -1.1708 -0.9854 -0.4129
  170SOL     OW 1950   2.439   7.350   5.138 -0.1923  0.8730  0.1231
  170SOL    HW1 1951   2.515   7.362   5.081  1.3947 -1.0188  1.7024
  170SOL    HW2 1952   2.454   7.413   5.209  0.7400 -0.5147  1.1975
  171SOL     OW 1953   7.670   7.071  11.111  0.3018 -0.0005 -0.1108
  171SOL    HW1 1954   7.651   7.113  11.195  0.5111  1.7062 -0.8558
  171SOL    HW2 1955   7.663   6.977  11.128 -1.6860  0.3412  1.3154
  172SOL     OW 1956   2.753   5.841   3.976 -0.7634 -0.4842 -0.3513
  172SOL    HW1 1957   2.836   5.879   3.945 -1.4580  0.3442 -1.2713
  172SOL    HW2 1958   2.774   5.750   3.994  0.5612 -0.0808  0.2896
  173SOL     OW 1959   3.204   6.723   3.890  1.0406  0.3161 -0.5778
  173SOL    HW1 1960   3.168   6.748   3.805 -1.3061 -1.5596 -0.2537
  173SOL    HW2 1961   3.285   6.677   3.870  0.5850  0.0178 -1.8032
  174SOL     OW 1962   1.389   1.385   2.867  0.1822 -0.0414 -0.5226
  174SOL    HW1 1963   1.373   1.339   2.785  4.0801 -2.1206 -0.3727
  174SOL    HW2 1964   1.371   1.320   2.935  1.4058  0.0917 -0.0433
  175SOL     OW 1965   6.474   0.481   5.755  0.0105 -0.3579  0.1383
  175SOL    HW1 1966   6.413   0.453   5.824 -0.5261  1.0337  0.2600
  175SOL    HW2 1967   6.469   0.577   5.756  1.2433 -0.2635 -0.7294
  176SOL     OW 1968   7.258   0.200   3.768 -0.0203  0.5271 -0.4582
  176SOL    HW1 1969   7.313   0.272   3.735 -0.3013  0.9592  0.0116
  176SOL    HW2 1970   7.268   0.131   3.702  4.3710 -1.1017  1.5032
  177SOL     OW 1971   1.217   3.312  11.661 -0.5190  0.0302  0.4961
  177SOL    HW1 1972   1.149   3.336  11.598 -1.8510 -1.1905  1.3918
  177SOL    HW2 1973   1.235   3.220  11.644  1.4964  0.5017 -0.1946
  178SOL     OW 1974   5.699   6.243  11.119  0.1817 -0.0665 -0.1621
  178SOL    HW1 1975   5.699   6.331  11.081 -2.7421 -0.0040 -0.2587
  178SOL    HW2 1976   5.703   6.184  11.043  1.8081 -0.0800 -0.1106
  179SOL     OW 1977   7.680   7.357  10.375  0.3731  0.6092 -0.1956
  179SOL    HW1 1978   7.688   7.262  10.364  1.3717  0.8783 -2.3609
  179SOL    HW2 1979   7.743   7.378  10.443 -1.1751 -0.4521  1.6601
  180SOL     OW 1980   4.421   2.346   5.287  0.2176  0.5400 -0.2965
  180SOL    HW1 1981   4.455   2.427   5.327  0.6826 -0.6292  1.8419
  180SOL    HW2 1982   4.484   2.324   5.219  0.7871  1.3099 -0.0352
  181SOL     OW 1983   1.799   4.718   4.547 -0.1759 -0.3320 -0.4032
  181SOL    HW1 1984   1.813   4.624   4.535 -2.3005 -0.4789 -2.3833
  181SOL    HW2 1985   1.729   4.740   4.486  0.0274  2.5043  0.2451
  182SOL     OW 1986   6.238   0.817   3.635  0.1746  0.7639 -0.1862
  182SOL    HW1 1987   6.214   0.845   3.723 -1.1620 -1.9778  0.4480
  182SOL    HW2 1988   6.161   0.835   3.581  0.2131  0.5446 -0.3175
  183SOL     OW 1989   1.550   7.691   8.375 -0.2961  0.4030 -0.5208
  183SOL    HW1 1990   1.584   7.681   8.464 -0.8794  0.5159 -0.2808
  183SOL    HW2 1991   1.627   7.682   8.319  0.5948  2.9989  0.1233
  184SOL     OW 1992   7.664   1.364  10.143 -0.3410  0.2286 -0.5039
  184SOL    HW1 1993   7.693   1.426  10.077  2.3428 -0.8302 -0.4571
  184SOL    HW2 1994   7.615   1.416  10.206  1.4336  2.2560 -0.7016
  185SOL     OW 1995   5.967   3.756   0.339 -0.7570 -0.0623  0.9694
  185SOL    HW1 1996   6.046   3.810   0.348 -0.3607 -0.4273 -0.2009
  185SOL    HW2 1997   5.943   3.735   0.429  0.9604 -0.6109  1.3352
  186SOL     OW 1998   2.862   6.995   7.978 -0.0999 -0.3726 -0.1652
  186SOL    HW1 1999   2.919   6.921   8.000 -0.0100 -0.7061 -1.4140
  186SOL    HW2 2000   2.871   7.004   7.883 -1.8762 -0.2128 -0.3462
  187SOL     OW 2001   6.654   7.957   1.689  0.2467  0.0916 -0.1484
  187SOL    HW1 2002   6.740   7.969   1.649  0.1337 -0.2352 -0.4950
  187SOL    HW2 2003   6.661   7.874   1.735 -0.3609 -0.7133 -1.4658
  188SOL     OW 2004   1.749   0.222   8.287 -0.0938  0.2854  0.0603
  188SOL    HW1 2005   1.676   0.190   8.340 -0.9564 -0.4263 -1.5124
  188SOL    HW2 2006   1.722   0.309   8.259 -0.2687  0.0892 -0.3830
  189SOL     OW 2007   6.077   1.266   6.485 -0.7389 -0.8427  0.3463
  189SOL    HW1 2008   6.134   1.193   6.510  0.4338  0.9005  3.3174
  189SOL    HW2 2009   6.138   1.334   6.457 -1.5810 -0.0183  0.4874
  190SOL     OW 2010   0.175   5.933  11.303  0.2371 -0.4611 -0.0516
  190SOL    HW1 2011   0.209   5.944  11.215  1.5658  0.7785  0.5808
  190SOL    HW2 2012   0.244   5.966  11.360 -1.3405  0.5655  1.3670
  191SOL     OW 2013   2.360   7.415  11.281 -0.5775 -0.4989 -0.4115
  191SOL    HW1 2014   2.294   7.368  11.231 -0.5726  0.2207 -1.1412
  191SOL    HW2 2015   2.441   7.365  11.267  0.3213  1.5495 -4.3433
  192SOL     OW 2016   1.353   5.230   1.944 -0.1361 -0.1266 -0.6507
  192SOL    HW1 2017   1.344   5.135   1.952  1.3015 -0.1796  0.8617
  192SOL    HW2 2018   1.447   5.246   1.948 -0.3011  1.3293 -1.6130
  193SOL     OW 2019   6.982   3.342   2.402 -0.3152  0.1448  0.1005
  193SOL    HW1 2020   7.013   3.405   2.467 -0.7790  1.7217 -1.1642
  193SOL    HW2 2021   7.061   3.311   2.359 -0.1045  0.0295  0.5606
  194SOL     OW 2022   0.968   4.217   0.007  1.0708  0.4926  0.4513
  194SOL    HW1 2023   1.002   4.270  -0.065  0.6302  1.3002  0.8320
  194SOL    HW2 2024   0.879   4.195  -0.019  0.6354  1.4429  1.0835
  195SOL     OW 2025   4.268   3.958   2.726 -0.6411 -0.0199 -0.0863
  195SOL    HW1 2026   4.182   3.959   2.684 -1.0228  0.9157  0.6810
  195SOL    HW2 2027   4.252   3.924   2.814  0.2308 -2.4524 -0.7899
  196SOL     OW 2028   1.860   7.126   0.603  0.8897  1.1005  0.0071
  196SOL    HW1 2029   1.847   7.153   0.513  2.5635  2.0398  0.0077
  196SOL    HW2 2030   1.954   7.113   0.611  0.6141 -0.6697  1.1786
  197SOL     OW 2031   4.339   7.323   5.583 -0.4700 -0.3703  0.1117
  197SOL    HW1 2032   4.253   7.360   5.604 -0.1433  0.4608 -0.0129
  197SOL    HW2 2033   4.393   7.398   5.560  0.5591 -0.7856  1.0750
  198SOL     OW 2034   3.861   6.222   0.760  0.1207 -0.4600 -0.3334
  198SOL    HW1 2035   3.872   6.204   0.666  0.7293  0.3814 -0.4365
  198SOL    HW2 2036   3.873   6.138   0.803 -0.5126 -0.9216 -1.0410
  199SOL     OW 2037   5.793   0.204   9.988 -0.4469  0.2879 -0.0240
  199SOL    HW1 2038   5.699   0.191   9.999 -0.6390  1.6873  0.2397
  199SOL    HW2 2039   5.821   0.243  10.071  0.5546 -0.9561  0.2541
  200SOL     OW 2040   5.286   5.870   5.039 -0.5155  0.3182 -0.2186
  200SOL    HW1 2041   5.243   5.952   5.016  1.6493  1.6572  0.2054
  200SOL    HW2 2042   5.357   5.861   4.975  2.6664  1.6977  2.8023
  201SOL     OW 2043   1.429   6.879   7.007  0.1228 -0.7466 -0.8171
  201SOL    HW1 2044   1.518   6.901   7.032  0.0364  0.9618 -1.7890
  201SOL    HW2 2045   1.389   6.845   7.086  1.3335 -0.5105 -0.0812
  202SOL     OW 2046   2.050   0.375   1.325 -0.5066  0.3827  0.7614
  202SOL    HW1 2047   1.981   0.319   1.362 -0.1540  0.4772  1.5836
  202SOL    HW2 2048   2.020   0.464   1.341  0.0013  0.4265  1.5160
  203SOL     OW 2049   6.350   6.574   4.982  0.5139 -0.0629 -0.2538
  203SOL    HW1 2050   6.440   6.573   4.948 -0.3187 -1.0979 -2.5648
  203SOL    HW2 2051   6.324   6.666   4.979  0.9484  0.0379 -1.0901
  204SOL     OW 2052   1.437   2.972   6.340  0.5198  0.2904  0.0488
  204SOL    HW1 2053   1.434   2.895   6.395 -1.5838  0.4237  0.1837
  204SOL    HW2 2054   1.445   3.045   6.401  2.1351  0.2510 -0.0629
  205SOL     OW 2055   0.249   2.028  11.563  0.0411  0.5229 -0.0345
  205SOL    HW1 2056   0.249   2.092  11.491  2.4419  0.2846 -0.3267
  205SOL    HW2 2057   0.335   2.036  11.602 -0.5600 -0.6888  1.6611
  206SOL     OW 2058   0.762   1.897   2.608  0.3562 -0.2060 -0.3619
  206SOL    HW1 2059   0.731   1.985   2.585 -0.2572 -0.1448  0.6443
  206SOL    HW2 2060   0.696   1.838   2.573 -1.2352 -0.0547  2.1583
  207SOL     OW 2061   3.375   3.034   5.224 -0.6213 -0.0095  0.2966
  207SOL    HW1 2062   3.413   3.062   5.141 -0.5067  0.3275  0.4619
  207SOL    HW2 2063   3.335   3.112   5.261 -0.5280 -0.1187  0.6377
  208SOL     OW 2064   5.910   6.304   3.251 -0.2609  0.0817  0.1601
  208SOL    HW1 2065   5.940   6.322   3.340 -0.2819  0.3592  0.1124
  208SOL    HW2 2066   5.937   6.382   3.201 -0.2863 -0.0542 -0.0657
  209SOL     OW 2067   2.094   5.895  11.249  0.6910  0.3967  0.2377
  209SOL    HW1 2068   2.059   5.952  11.316 -0.9301 -1.0771  0.6958
  209SOL    HW2 2069   2.032   5.823  11.242  1.2253  0.0653 -2.2648
  210SOL     OW 2070   1.680   7.417  11.901 -0.3486 -0.3729  0.1972
  210SOL    HW1 2071   1.767   7.400  11.937  0.2960  0.7648 -0.7695
  210SOL    HW2 2072   1.624   7.425  11.978  0.8643  1.2989  0.9800
  211SOL     OW 2073   3.446   5.922   9.346 -0.0736 -0.4583  0.2902
  211SOL    HW1 2074   3.469   5.994   9.287 -0.3456  1.3050  2.2248
  211SOL    HW2 2075   3.430   5.848   9.288  1.8380  0.5761 -1.6794
  212SOL     OW 2076   0.143   2.811  12.184  0.7070  0.0613  0.0438
  212SOL    HW1 2077   0.079   2.744  12.207  1.2777 -0.1381  1.0927
  212SOL    HW2 2078   0.181   2.781  12.101  1.2405 -1.1334  0.7010
  213SOL     OW 2079   1.357   4.119   7.917  0.1489 -0.4852  0.3206
  213SOL    HW1 2080   1.389   4.146   7.831  1.3331  1.6785  1.3491
  213SOL    HW2 2081   1.354   4.200   7.967 -0.7182 -1.6609  2.2649
  214SOL     OW 2082   2.388   3.889   3.780  0.1596  0.0408  0.4941
  214SOL    HW1 2083   2.314   3.948   3.792 -0.8610 -0.5238 -2.2409
  214SOL    HW2 2084   2.373   3.818   3.842 -0.6606  0.7734  1.1535
  215SOL     OW 2085   0.258   7.219   7.620  0.3281 -0.3199 -0.1454
  215SOL    HW1 2086   0.177   7.246   7.664  0.2712  1.5264 -1.2903
  215SOL    HW2 2087   0.327   7.268   7.665  0.5180 -0.0971 -0.6722
  216SOL     OW 2088   5.255   5.143   7.486  0.0355 -0.0591  0.1794
  216SOL    HW1 2089   5.315   5.107   7.421  1.1858  2.2828 -0.1415
  216SOL    HW2 2090   5.294   5.120   7.570 -0.8118 -2.0260  0.0975
  217SOL     OW 2091   3.493   2.522  12.030 -0.1745  0.0208  0.0996
  217SOL    HW1 2092   3.512   2.554  11.941  4.1228  0.1227  0.8296
  217SOL    HW2 2093   3.478   2.602  12.081 -0.6516  0.1006 -0.1646
  218SOL     OW 2094   1.042   5.161   0.786  0.2693  0.7279  0.3802
  218SOL    HW1 2095   1.019   5.084   0.734  1.6787  0.6384 -0.1582
  218SOL    HW2 2096   0.958   5.202   0.806 -0.6921 -1.9071  2.2563
  219SOL     OW 2097   0.392   2.222   1.204  0.4235  0.7220 -0.6390
  219SOL    HW1 2098   0.305   2.259   1.190 -0.2205  0.2702  1.7670
  219SOL    HW2 2099   0.418   2.253   1.290  1.2513 -1.7315  0.0787
  220SOL     OW 2100   6.083   2.460   2.563  0.1669 -0.5195 -0.0147
  220SOL    HW1 2101   6.072   2.539   2.616 -0.6802  0.2579 -1.2992
  220SOL    HW2 2102   5.998   2.446   2.523  0.3776 -1.9663  0.0024
  221SOL     OW 2103   5.854   4.987   7.945  0.1091 -0.3625 -0.3238
  221SOL    HW1 2104   5.843   5.077   7.917 -1.9955 -0.2449  0.6833
  221SOL    HW2 2105   5.809   4.935   7.878 -0.3102 -0.5138  0.0755
  222SOL     OW 2106   5.095   3.613   8.007 -0.4788  0.8696 -0.1455
  222SOL    HW1 2107   5.020   3.599   8.064 -0.2054 -0.2025 -0.0201
  222SOL    HW2 2108   5.089   3.544   7.941  0.3837  0.7676 -0.1382
  223SOL     OW 2109   1.762   1.977  12.045  0.1536  0.1759  0.0050
  223SOL    HW1 2110   1.776   1.992  11.951  0.6816 -0.6121 -0.0542
  223SOL    HW2 2111   1.668   1.963  12.054  0.2582 -1.0042 -0.6011
  224SOL     OW 2112   1.435   1.234   9.563 -0.2847 -0.5613  0.0150
  224SOL    HW1 2113   1.495   1.267   9.496  0.2602 -0.7964  0.3939
  224SOL    HW2 2114   1.369   1.304   9.570  0.5353  0.1962  0.3841
  225SOL     OW 2115   1.984   6.802   5.762 -0.4260 -0.3919  0.2337
  225SOL    HW1 2116   1.977   6.879   5.705 -0.2584 -0.1735  0.5040
  225SOL    HW2 2117   2.062   6.757   5.731 -0.2858 -0.2275  0.3416
  226SOL     OW 2118   2.952   6.876   9.478  0.4761 -0.1018 -0.0499
  226SOL    HW1 2119   2.999   6.911   9.554  1.0436 -0.5572 -0.1873
  226SOL    HW2 2120   2.968   6.782   9.482  0.0553 -0.1913 -0.4310
  227SOL     OW 2121   4.208   4.509   1.048  0.0693  0.0953 -0.4489
  227SOL    HW1 2122   4.124   4.506   1.003  0.2357 -1.5781 -0.7369
  227SOL    HW2 2123   4.252   4.585   1.012 -1.3446  1.0601 -0.2258
  228SOL     OW 2124   2.881   5.586   2.163  0.3219 -0.1333  0.1159
  228SOL    HW1 2125   2.862   5.500   2.128  0.9279 -0.2586  0.0779
  228SOL    HW2 2126   2.867   5.646   2.090  0.5246 -0.2737 -0.0385
  229SOL     OW 2127   3.005   1.380   6.377 -0.0308 -0.0493 -0.4060
  229SOL    HW1 2128   2.911   1.365   6.387 -0.0046  0.2188  0.3173
  229SOL    HW2 2129   3.038   1.383   6.466  0.5610  0.5001 -0.6380
  230SOL     OW 2130   3.410   4.485   7.060  0.3043  0.0897  0.1131
  230SOL    HW1 2131   3.378   4.492   6.970  0.7603 -2.5790 -0.3299
  230SOL    HW2 2132   3.358   4.549   7.109 -0.5364  1.0165 -1.8706
  231SOL     OW 2133   4.510   5.577   6.744  0.1278  0.0167 -0.5560
  231SOL    HW1 2134   4.463   5.598   6.824 -0.7824 -1.1251 -0.7725
  231SOL    HW2 2135   4.443   5.582   6.675  0.6315 -0.2369 -1.0729
  232SOL     OW 2136   6.856   6.830   2.870  0.3848 -0.0951 -0.0498
  232SOL    HW1 2137   6.762   6.844   2.878  0.0859 -1.8119 -0.1996
  232SOL    HW2 2138   6.868   6.794   2.782  1.1076 -0.4548  0.1867
  233SOL     OW 2139   4.112   7.327  11.998  0.6834  0.7082 -0.4116
  233SOL    HW1 2140   4.041   7.385  12.026 -0.4488 -1.4835  1.5665
  233SOL    HW2 2141   4.071   7.266  11.937  0.5383 -1.1457  1.4387
  234SOL     OW 2142   0.019   1.616   9.070 -0.0736  0.8455  0.3198
  234SOL    HW1 2143   0.062   1.668   9.002 -0.9027  1.3284  0.1481
  234SOL    HW2 2144   0.090   1.571   9.115  0.5235  0.7481 -0.6743
  235SOL     OW 2145   3.710   2.785  10.383 -0.0274  0.0150 -0.0260
  235SOL    HW1 2146   3.758   2.743  10.313 -0.3768  0.5001 -0.5741
  235SOL    HW2 2147   3.777   2.828  10.436  0.1902  0.2860 -0.5069
  236SOL     OW 2148   0.728   0.298   0.974  0.4176  0.0850 -0.2619
  236SOL    HW1 2149   0.632   0.296   0.974  0.2669  2.7420 -1.3662
  236SOL    HW2 2150   0.750   0.377   1.023  1.9873  0.1346 -0.9877
  237SOL     OW 2151   6.372   3.838   4.507 -0.3636  0.4989 -0.0398
  237SOL    HW1 2152   6.332   3.857   4.592 -1.5780  0.6364 -0.6087
  237SOL    HW2 2153   6.316   3.771   4.469  0.6317 -0.1374 -0.4146
  238SOL     OW 2154   7.078   1.907   9.502  0.3896 -0.5015 -0.1476
  238SOL    HW1 2155   7.114   1.900   9.591 -1.7184 -0.9031  0.7551
  238SOL    HW2 2156   7.017   1.981   9.508  0.0749 -0.6687 -1.2027
  239SOL     OW 2157   6.743   3.850   5.537  0.1431 -0.0631  0.0805
  239SOL    HW1 2158   6.716   3.853   5.445  0.5790 -1.0144 -0.0881
  239SOL    HW2 2159   6.832   3.887   5.537  0.3312 -0.5133  0.0430
  240SOL     OW 2160   0.102   4.040   3.999 -0.4668 -0.9614  0.2261
  240SOL    HW1 2161   0.073   4.079   4.082 -0.5075 -0.9826  0.2221
  240SOL    HW2 2162   0.024   3.995   3.966 -1.6436  2.1180 -1.6471
  241SOL     OW 2163   7.009   1.029   4.974  0.3802 -0.3391 -0.4533
  241SOL    HW1 2164   6.914   1.016   4.973  0.5626 -2.5666  1.5472
  241SOL    HW2 2165   7.044   0.954   4.925  1.1212  0.0053 -0.4633
  242SOL     OW 2166   6.132   0.960  12.359  0.5110 -0.2344 -0.2446
  242SOL    HW1 2167   6.079   0.896  12.407 -1.3353  1.9417  0.7899
  242SOL    HW2 2168   6.216   0.961  12.406  1.0379 -2.6350 -0.9807
  243SOL     OW 2169   6.179   5.925   8.599  0.0917 -0.1624  0.1376
  243SOL    HW1 2170   6.225   5.856   8.552 -1.6741 -0.7004 -0.8786
  243SOL    HW2 2171   6.107   5.881   8.644 -0.9942  0.9422 -0.4177
  244SOL     OW 2172   4.340   0.217   1.865  0.0778  0.3116  0.3114
  244SOL    HW1 2173   4.336   0.273   1.787 -2.3156 -0.0427  0.1101
  244SOL    HW2 2174   4.366   0.131   1.832 -2.3194 -0.2051 -0.4004
  245SOL     OW 2175   2.897   6.065   5.766 -0.1811  0.4229 -0.0736
  245SOL    HW1 2176   2.951   5.994   5.799  0.9667  1.3882  0.2126
  245SOL    HW2 2177   2.955   6.113   5.707 -0.2952  2.1859  1.1526
  246SOL     OW 2178   4.521   4.411   2.611  0.4057  0.1178  0.3221
  246SOL    HW1 2179   4.499   4.319   2.600  1.3395  0.0132 -0.7841
  246SOL    HW2 2180   4.437   4.456   2.610  0.0694 -0.4398 -2.0754
  247SOL     OW 2181   1.326   2.365   3.420 -0.2956  0.2128  0.2808
  247SOL    HW1 2182   1.298   2.423   3.490 -2.7229  1.2246 -1.3639
  247SOL    HW2 2183   1.388   2.416   3.368  0.6130 -0.1287  1.0061
  248SOL     OW 2184   2.078   7.425   2.584  0.0347 -0.5320 -0.2813
  248SOL    HW1 2185   2.141   7.380   2.641 -0.7171 -1.4163 -0.1119
  248SOL    HW2 2186   2.024   7.477   2.644  0.2313 -0.2347 -0.3613
  249SOL     OW 2187   5.554   3.083   7.781 -0.0739 -0.2215 -0.5563
  249SOL    HW1 2188   5.554   3.056   7.689  1.0252 -2.3230 -0.0167
  249SOL    HW2 2189   5.617   3.155   7.785 -0.1173 -0.1260 -1.4368
  250SOL     OW 2190   1.033   6.669   7.740  0.1515 -0.1929  0.3100
  250SOL    HW1 2191   1.092   6.646   7.812 -1.6666  0.7799  2.2380
  250SOL    HW2 2192   0.946   6.661   7.778 -0.8909  0.3250 -1.8452
  251SOL     OW 2193   0.066   4.199   7.363  0.0245 -0.3390 -0.2422
  251SOL    HW1 2194   0.150   4.192   7.408 -0.3558 -0.9983  0.3859
  251SOL    HW2 2195   0.007   4.237   7.427 -0.8427 -2.4593  0.3077
  252SOL     OW 2196   7.186   3.844   0.514 -0.5748 -0.3976  0.1449
  252SOL    HW1 2197   7.142   3.765   0.545 -0.3077 -0.5012  0.2584
  252SOL    HW2 2198   7.233   3.817   0.436  0.4707 -0.6350  0.8278
  253SOL     OW 2199   1.497   3.089   6.821 -0.2768  0.1731 -0.5151
  253SOL    HW1 2200   1.578   3.111   6.866  0.7640 -2.0765 -1.1177
  253SOL    HW2 2201   1.439   3.057   6.890 -0.7279  1.8783 -0.0685
  254SOL     OW 2202   1.759   6.782   9.794  0.0909 -0.5375 -0.1897
  254SOL    HW1 2203   1.745   6.724   9.870 -1.4556  0.3549  0.2418
  254SOL    HW2 2204   1.687   6.844   9.798 -0.5103 -0.9483 -2.8692
  255SOL     OW 2205   4.188   7.018   7.098 -0.0216  0.0620  0.4814
  255SOL    HW1 2206   4.188   6.923   7.084 -0.3151 -0.1883  2.0053
  255SOL    HW2 2207   4.241   7.053   7.026  0.7462 -1.3256  0.3395
  256SOL     OW 2208   5.317   4.885   0.177 -0.1315 -0.5028  0.0651
  256SOL    HW1 2209   5.371   4.948   0.130 -0.7908  0.8734  1.1058
  256SOL    HW2 2210   5.235   4.930   0.195 -0.3930 -1.4184  1.3914
  257SOL     OW 2211   7.320   6.354   2.580  0.4808 -0.2498 -0.0013
  257SOL    HW1 2212   7.254   6.299   2.624  0.6606  0.6750  1.5006
  257SOL    HW2 2213   7.272   6.396   2.509 -0.4365 -0.0116  0.7322
  258SOL     OW 2214   2.991   4.675   4.360 -0.4148 -0.3581 -0.2769
  258SOL    HW1 2215   3.047   4.699   4.434 -0.8726  0.6377 -0.2317
  258SOL    HW2 2216   3.006   4.745   4.296 -0.2597 -1.0479 -0.9967
  259SOL     OW 2217   4.412   6.696  11.448  0.7148  0.2438  0.2609
  259SOL    HW1 2218   4.444   6.606  11.447 -0.9090 -0.3922  1.7634
  259SOL    HW2 2219   4.491   6.749  11.457  1.5350 -1.1936  2.4917
  260SOL     OW 2220   2.871   3.700   9.779  0.2688 -0.4581 -0.0892
  260SOL    HW1 2221   2.784   3.718   9.816  0.3144  1.6590 -0.8884
  260SOL    HW2 2222   2.929   3.693   9.856 -0.4808 -1.3903  0.4235
  261SOL     OW 2223   3.419   0.796  11.309 -0.3323 -0.3618 -0.3269
  261SOL    HW1 2224   3.434   0.705  11.335  0.2821 -0.9066 -2.3957
  261SOL    HW2 2225   3.500   0.823  11.267 -1.4118  0.2268 -2.1476
  262SOL     OW 2226   5.678   5.834   6.197  0.0420 -0.3723  0.1679
  262SOL    HW1 2227   5.614   5.769   6.226  0.4519 -1.8526 -2.0826
  262SOL    HW2 2228   5.756   5.816   6.249 -0.0802 -1.2149  0.0626
  263SOL     OW 2229   6.227   5.542   0.434 -0.6749 -0.4274 -0.2888
  263SOL    HW1 2230   6.169   5.589   0.494  1.4169  0.3236  1.2806
  263SOL    HW2 2231   6.238   5.456   0.475 -1.1789 -0.8276 -0.9584
  264SOL     OW 2232   3.670   0.483   8.799 -0.0027  0.0869  0.1227
  264SOL    HW1 2233   3.575   0.484   8.791  0.0741  0.8387 -0.7851
  264SOL    HW2 2234   3.687   0.424   8.873 -1.2598  1.4597  1.5805
  265SOL     OW 2235   4.810   6.457   7.730  0.3119  0.0007  0.4002
  265SOL    HW1 2236   4.864   6.536   7.728  0.1240  0.1493  1.0226
  265SOL    HW2 2237   4.839   6.411   7.809 -2.1623  1.3205  2.2216
  266SOL     OW 2238   0.959   2.816   7.827 -0.6325  0.1149  0.1120
  266SOL    HW1 2239   0.923   2.894   7.785 -0.8731 -0.4674 -0.7839
  266SOL    HW2 2240   0.991   2.762   7.755 -1.2480 -1.0114  0.6452
  267SOL     OW 2241   5.268   2.878   5.082  0.0168 -0.2189 -0.2729
  267SOL    HW1 2242   5.302   2.898   5.169  0.2420  1.5915 -0.7377
  267SOL    HW2 2243   5.199   2.942   5.068  0.7091  0.2213 -1.8465
  268SOL     OW 2244   0.868   5.323   4.810  0.1896 -0.1457  0.1544
  268SOL    HW1 2245   0.782   5.334   4.850  0.4232  2.4529  0.0913
  268SOL    HW2 2246   0.851   5.324   4.716  0.3085  0.9411  0.1317
  269SOL     OW 2247   1.078   1.660   4.645  0.6072  0.3724  0.1468
  269SOL    HW1 2248   1.125   1.599   4.702  0.6711  1.2640  1.0755
  269SOL    HW2 2249   1.143   1.727   4.624  0.6069  0.0132 -1.0696
  270SOL     OW 2250   2.019   4.236   5.906  0.1621  0.2881 -0.8547
  270SOL    HW1 2251   1.999   4.164   5.846  1.1259  0.5674 -1.5258
  270SOL    HW2 2252   2.062   4.302   5.852  0.6303  0.7485  0.0537
  271SOL     OW 2253   6.798   0.617   4.164  0.2505 -0.0724 -0.0576
  271SOL    HW1 2254   6.818   0.527   4.141 -0.1929 -0.9647  2.6885
  271SOL    HW2 2255   6.706   0.615   4.189  0.5058  0.8866  1.0423
  272SOL     OW 2256   5.115   1.706   5.924  0.4083  0.2540  0.3862
  272SOL    HW1 2257   5.055   1.674   5.991  0.1832 -1.4170 -0.5637
  272SOL    HW2 2258   5.140   1.628   5.875  1.7619  1.2210 -0.5294
  273SOL     OW 2259   1.678   5.771  12.374  0.4208  0.5149 -0.3978
  273SOL    HW1 2260   1.644   5.829  12.306 -0.5358  0.1489 -0.2602
  273SOL    HW2 2261   1.633   5.687  12.359  0.0569  0.4742  0.7643
  274SOL     OW 2262   5.815   4.280   3.603  0.2709  0.0183  0.5843
  274SOL    HW1 2263   5.729   4.243   3.625 -0.3258  1.0481  0.0723
  274SOL    HW2 2264   5.864   4.206   3.567 -1.1818 -0.1634 -1.2372
  275SOL     OW 2265   7.570   7.071   3.494 -0.6322  0.0171  0.7442
  275SOL    HW1 2266   7.628   7.011   3.446 -1.7265 -0.0046 -0.5970
  275SOL    HW2 2267   7.604   7.069   3.584  1.4698  0.0392  0.0077
  276SOL     OW 2268   5.817   1.232   0.950  0.3903 -0.0778  0.1995
  276SOL    HW1 2269   5.796   1.174   0.877  0.1547  0.6036 -0.2841
  276SOL    HW2 2270   5.775   1.315   0.928  1.3447  0.5098  0.5107
  277SOL     OW 2271   6.451   1.978  12.428  0.1205  0.2056  0.1220
  277SOL    HW1 2272   6.532   2.024  12.452  0.4416 -1.2184  1.9754
  277SOL    HW2 2273   6.401   1.973  12.509 -1.3797  0.1357 -0.7752
  278SOL     OW 2274   0.372   7.593   0.566 -0.2031 -0.1274 -0.3744
  278SOL    HW1 2275   0.456   7.629   0.596 -0.6981  1.6640 -1.0428
  278SOL    HW2 2276   0.314   7.600   0.641  0.3442 -1.9248  0.2840
  279SOL     OW 2277   1.422   2.336   1.441  0.1492 -0.1696  0.1559
  279SOL    HW1 2278   1.456   2.379   1.519  2.0611 -1.2100 -0.0529
  279SOL    HW2 2279   1.394   2.249   1.471 -1.2249  0.2110  0.0725
  280SOL     OW 2280   0.976   1.568   7.762 -0.1179  0.4815  0.2402
  280SOL    HW1 2281   0.967   1.498   7.826  0.6199 -0.5948 -0.7792
  280SOL    HW2 2282   0.887   1.585   7.732 -0.1586 -1.2748 -0.7585
  281SOL     OW 2283   3.038   7.403   9.051  0.4437 -0.5950  0.3204
  281SOL    HW1 2284   3.040   7.471   9.117 -1.8091 -0.1991  0.0389
  281SOL    HW2 2285   3.102   7.431   8.985  0.6823  0.4183  0.9802
  282SOL     OW 2286   2.551   5.242   8.920 -0.5108 -0.9638 -0.3695
  282SOL    HW1 2287   2.456   5.252   8.910 -0.3601  1.2207 -0.0739
  282SOL    HW2 2288   2.587   5.257   8.833 -0.3980 -1.2752 -0.3782
  283SOL     OW 2289   7.708   0.536   4.675  0.4952 -0.1984 -0.3791
  283SOL    HW1 2290   7.630   0.489   4.706  1.0015 -0.2702  0.8691
  283SOL    HW2 2291   7.674   0.600   4.613 -0.3813 -1.2037 -0.9779
  284SOL     OW 2292   3.805   3.064   4.926 -0.6633 -0.4002  0.1821
  284SOL    HW1 2293   3.785   3.072   4.833  0.7564  1.4544 -0.0251
  284SOL    HW2 2294   3.863   2.988   4.932 -0.8975 -0.6308 -0.4068
  285SOL     OW 2295   2.798   2.105   5.896 -0.1521  0.4969 -0.1737
  285SOL    HW1 2296   2.740   2.143   5.962 -0.4437  0.8543 -0.6410
  285SOL    HW2 2297   2.762   2.132   5.812 -0.6945 -1.2535 -0.5498
  286SOL     OW 2298   2.252   6.729   3.541  0.4590  0.2468 -0.2975
  286SOL    HW1 2299   2.238   6.799   3.477  0.8586 -0.1591 -0.8375
  286SOL    HW2 2300   2.173   6.731   3.595  0.1537  0.6603 -0.7437
  287SOL     OW 2301   0.284   6.389   8.884 -0.1831  0.5693  0.0346
  287SOL    HW1 2302   0.204   6.386   8.936 -0.0193 -2.4359  0.2944
  287SOL    HW2 2303   0.313   6.298   8.879  2.9675  1.4834 -0.4887
  288SOL     OW 2304   3.145   2.238   0.541 -0.1860  1.1210 -0.1731
  288SOL    HW1 2305   3.215   2.225   0.605 -0.9258 -0.1427  0.4184
  288SOL    HW2 2306   3.085   2.299   0.584 -1.0103 -0.2248  0.6521
  289SOL     OW 2307   6.908   4.831   4.707 -0.3483 -0.9281 -0.2270
  289SOL    HW1 2308   6.880   4.795   4.792 -0.6477 -1.2969 -0.4817
  289SOL    HW2 2309   6.967   4.765   4.672 -0.0354 -0.6652 -0.2039
  290SOL     OW 2310   3.208   6.166   7.761 -0.3034  0.2529 -0.0011
  290SOL    HW1 2311   3.218   6.244   7.708  0.5231 -0.2384 -0.5925
  290SOL    HW2 2312   3.269   6.178   7.833  0.0878 -0.0039 -0.2874
  291SOL     OW 2313   4.824   3.396   6.712  0.1697  0.5027  0.1193
  291SOL    HW1 2314   4.743   3.358   6.745  0.1404  0.4121 -0.0536
  291SOL    HW2 2315   4.817   3.489   6.733 -0.1003  0.5411 -0.1361
  292SOL     OW 2316   7.065   0.732  11.181  0.3265  0.4936 -0.5540
  292SOL    HW1 2317   7.117   0.654  11.199  0.1621  0.2369 -1.1669
  292SOL    HW2 2318   6.974   0.701  11.182  0.1561  0.9626  0.6287
  293SOL     OW 2319   7.199   3.970   6.772 -0.2095 -0.2745  0.0071
  293SOL    HW1 2320   7.245   3.903   6.721  0.0644  0.2473 -0.4305
  293SOL    HW2 2321   7.165   3.922   6.848 -0.1714 -0.9489 -0.3940
  294SOL     OW 2322   3.717   2.290   2.529 -0.2038 -0.0221  0.0357
  294SOL    HW1 2323   3.706   2.197   2.550 -0.5263  0.0548  0.2137
  294SOL    HW2 2324   3.663   2.303   2.452 -1.0756  0.2676  0.6770
  295SOL     OW 2325   5.207   2.895   2.559 -0.1844 -0.0218  0.4473
  295SOL    HW1 2326   5.286   2.920   2.512 -1.1810 -0.6741 -1.7327
  295SOL    HW2 2327   5.237   2.870   2.646  1.9043  0.3658 -0.1166
  296SOL     OW 2328   2.099   7.196   6.342  0.6422  0.3191  0.3197
  296SOL    HW1 2329   2.111   7.122   6.402 -2.1171  0.9733  1.8958
  296SOL    HW2 2330   2.064   7.156   6.263  1.2497 -0.2680  0.3405
  297SOL     OW 2331   2.271   7.189   4.665 -0.1457  0.0685 -0.4334
  297SOL    HW1 2332   2.268   7.274   4.621  0.3685  0.1862 -0.2539
  297SOL    HW2 2333   2.208   7.135   4.617  0.2254  0.2651 -1.1657
  298SOL     OW 2334   5.435   3.550   7.724 -0.3845  0.2426 -0.1027
  298SOL    HW1 2335   5.443   3.645   7.733  0.3030  0.1494  0.3921
  298SOL    HW2 2336   5.362   3.538   7.664  0.9464  1.1365 -2.0234
  299SOL     OW 2337   3.339   7.327   5.948  0.2771 -0.4675 -0.0056
  299SOL    HW1 2338   3.267   7.288   5.899  0.1615  0.4784 -0.6187
  299SOL    HW2 2339   3.394   7.368   5.881  0.3672  0.4408  0.6066
  300SOL     OW 2340   0.604   5.211   0.491  0.0998 -0.1372 -0.3099
  300SOL    HW1 2341   0.610   5.123   0.454  0.9151 -0.0931 -0.2903
  300SOL    HW2 2342   0.590   5.268   0.415  1.1917 -0.1098 -0.4962
  301SOL     OW 2343   7.062   5.069  10.714 -0.0472 -0.0655 -0.4411
  301SOL    HW1 2344   7.067   5.081  10.809  1.0075  1.0942 -0.6211
  301SOL    HW2 2345   6.981   5.112  10.689 -0.1063  0.0145 -0.1192
  302SOL     OW 2346   7.200   4.460   0.947 -0.1220  0.2423  0.5222
  302SOL    HW1 2347   7.291   4.429   0.949  0.0120  0.4743 -0.7845
  302SOL    HW2 2348   7.200   4.528   0.880 -1.2864  0.1587  0.4246
  303SOL     OW 2349   2.838   3.662   8.232 -0.1792  0.1098 -0.3187
  303SOL    HW1 2350   2.823   3.600   8.161 -0.9165  0.0850 -0.1471
  303SOL    HW2 2351   2.871   3.608   8.304  0.5758  0.1368 -0.6356
  304SOL     OW 2352   1.866   7.752   6.585 -0.0461 -0.2521 -0.1013
  304SOL    HW1 2353   1.808   7.823   6.612  2.2194  1.3955  0.6383
  304SOL    HW2 2354   1.902   7.717   6.666  1.0681 -0.2828 -0.5865
  305SOL     OW 2355   2.314   6.434   6.269 -0.2883 -0.1238  0.2097
  305SOL    HW1 2356   2.228   6.398   6.290 -0.6083  0.0898 -0.6981
  305SOL    HW2 2357   2.356   6.365   6.216  0.3178 -0.4572  1.1083
  306SOL     OW 2358   4.707   7.529  11.507 -0.2778 -0.3634 -0.2472
  306SOL    HW1 2359   4.647   7.458  11.526 -1.0683  0.3324 -0.0864
  306SOL    HW2 2360   4.663   7.607  11.540  2.5138 -0.2521  4.0207
  307SOL     OW 2361   4.167   0.235   8.083 -0.1786  0.7120  0.3802
  307SOL    HW1 2362   4.120   0.307   8.125  1.5509  1.9343  0.2853
  307SOL    HW2 2363   4.190   0.176   8.154 -1.0320  0.5522  0.5421
  308SOL     OW 2364   5.279   2.120   3.427 -0.1984  0.6218 -0.1457
  308SOL    HW1 2365   5.260   2.139   3.519  1.0351  2.6079 -0.2361
  308SOL    HW2 2366   5.195   2.097   3.389 -1.2558  2.5261  0.8875
  309SOL     OW 2367   2.162   6.812   5.516 -0.9877  0.3649 -0.1338
  309SOL    HW1 2368   2.141   6.719   5.509 -0.9637  0.3649 -0.2070
  309SOL    HW2 2369   2.257   6.816   5.504 -0.9526  0.3713  0.1284
  310SOL     OW 2370   3.805   2.957   9.333  0.1726 -0.5225  0.7287
  310SOL    HW1 2371   3.789   2.889   9.268  0.1656 -0.3686  0.5683
  310SOL    HW2 2372   3.900   2.966   9.335  0.1340  0.0515  0.1398
  311SOL     OW 2373   1.553   2.678   1.571 -0.0337  0.4214  0.3442
  311SOL    HW1 2374   1.496   2.643   1.503  0.8796 -1.4705  0.4901
  311SOL    HW2 2375   1.580   2.764   1.537 -1.5161  0.5732 -0.5317
  312SOL     OW 2376   6.692   5.291   5.238  0.2246  0.5851  0.4137
  312SOL    HW1 2377   6.775   5.244   5.231 -0.2267 -0.0538 -0.8299
  312SOL    HW2 2378   6.653   5.286   5.151 -1.8548 -0.5156  1.3380
  313SOL     OW 2379   3.272   6.139   1.689 -0.2558 -0.4797 -0.1285
  313SOL    HW1 2380   3.330   6.078   1.643  1.4760  0.1945  1.0627
  313SOL    HW2 2381   3.314   6.224   1.679 -2.0967  0.4118 -0.8765
  314SOL     OW 2382   2.580   5.167   9.538 -0.0382  0.0775  0.1189
  314SOL    HW1 2383   2.591   5.073   9.549  0.5927 -0.1707 -2.1240
  314SOL    HW2 2384   2.654   5.194   9.484 -0.4686  1.7856  0.3186
  315SOL     OW 2385   2.479   6.086   8.924  0.4438  0.3071  0.2132
  315SOL    HW1 2386   2.535   6.138   8.867  1.6354 -0.2063  0.8823
  315SOL    HW2 2387   2.479   5.998   8.886 -0.3555  0.4258 -0.0814
  316SOL     OW 2388   1.302   6.447   2.439 -0.5370  0.6500  0.6728
  316SOL    HW1 2389   1.280   6.523   2.493  0.3544  1.7552 -0.4657
  316SOL    HW2 2390   1.237   6.449   2.369  0.3384  1.2242 -0.1456
  317SOL     OW 2391   4.483   2.835   4.851  0.0587 -0.3977  0.1856
  317SOL    HW1 2392   4.501   2.790   4.769  4.3822  0.7630  0.2605
  317SOL    HW2 2393   4.502   2.770   4.919  2.1810  0.1910  0.2298
  318SOL     OW 2394   0.363   3.539   6.340 -0.4760 -0.9579 -0.0327
  318SOL    HW1 2395   0.390   3.625   6.308 -0.0772 -1.0921 -0.0553
  318SOL    HW2 2396   0.421   3.478   6.295  1.2011 -1.0625  2.1309
  319SOL     OW 2397   7.337   0.057   6.820  0.2304  0.5905 -0.0756
  319SOL    HW1 2398   7.245   0.033   6.836  0.2103  1.6777  1.7590
  319SOL    HW2 2399   7.387  -0.016   6.855  0.1110 -1.1262 -3.2138
  320SOL     OW 2400   7.916   0.830   2.569 -0.1970  0.1706  0.3491
  320SOL    HW1 2401   8.003   0.791   2.560 -0.0552  0.7439 -1.0162
  320SOL    HW2 2402   7.900   0.832   2.663  0.6178 -1.3422  0.5515
  321SOL     OW 2403   1.118   0.073   8.609  0.3748 -0.1840  0.1254
  321SOL    HW1 2404   1.066   0.072   8.529 -2.0058  0.2240  1.5743
  321SOL    HW2 2405   1.144  -0.019   8.622 -3.2086 -1.1765  1.2551
  322SOL     OW 2406   3.186   7.741   3.470  0.2660 -0.4639 -0.9007
  322SOL    HW1 2407   3.117   7.679   3.447  0.3728 -0.5333 -1.0386
  322SOL    HW2 2408   3.258   7.687   3.503 -0.3087 -0.2911  0.7160
  323SOL     OW 2409   4.824   2.915   5.748  0.8153  0.0449 -0.0201
  323SOL    HW1 2410   4.836   3.010   5.744  0.9590  0.0483  0.4883
  323SOL    HW2 2411   4.757   2.901   5.814  1.1082 -0.2290  0.2257
  324SOL     OW 2412   3.604   7.942   4.113 -0.4557  0.1734 -0.1730
  324SOL    HW1 2413   3.622   7.968   4.203  0.6824 -1.4234  0.0919
  324SOL    HW2 2414   3.682   7.968   4.064 -0.2151 -0.7882 -0.3064
  325SOL     OW 2415   4.229   6.711   7.211  0.1481  0.0054 -0.0665
  325SOL    HW1 2416   4.322   6.730   7.225  0.5336 -2.0239  0.5628
  325SOL    HW2 2417   4.224   6.615   7.212 -1.6366 -0.0114 -2.3384
  326SOL     OW 2418   0.687   5.560   9.380 -0.1498  0.1699 -0.2303
  326SOL    HW1 2419   0.594   5.546   9.361  0.0620 -2.2627  0.2175
  326SOL    HW2 2420   0.687   5.624   9.451 -1.4235  0.9009 -0.8570
  327SOL     OW 2421   5.635   1.528   3.568  0.0079  0.1907 -0.6435
  327SOL    HW1 2422   5.625   1.441   3.607  2.4640  1.3391  3.0751
  327SOL    HW2 2423   5.549   1.569   3.580 -0.4324 -0.8733  0.0219
  328SOL     OW 2424   2.465   5.451  10.530 -0.3285 -0.3913  0.3304
  328SOL    HW1 2425   2.411   5.429  10.454  0.0402  1.0900 -0.3970
  328SOL    HW2 2426   2.508   5.369  10.554 -1.4665 -1.1756 -0.2315
  329SOL     OW 2427   6.186   1.066   9.396  0.1750 -0.2273 -0.6413
  329SOL    HW1 2428   6.272   1.053   9.356 -0.4292  0.6203 -2.3115
  329SOL    HW2 2429   6.124   1.025   9.335 -0.6605 -0.4393  0.3090
  330SOL     OW 2430   6.087   1.778   8.290  0.1410 -0.1045 -0.2401
  330SOL    HW1 2431   6.172   1.778   8.333  1.1038 -1.6095 -1.9926
  330SOL    HW2 2432   6.044   1.699   8.322  0.1150 -0.2456 -0.6136
  331SOL     OW 2433   1.851   5.936   4.329 -0.2412  0.2415 -0.4097
  331SOL    HW1 2434   1.811   5.857   4.365 -0.6527 -0.3233 -2.0127
  331SOL    HW2 2435   1.879   5.986   4.406  0.1436 -1.5109  0.6392
  332SOL     OW 2436   4.095   4.487   7.307 -0.5652  0.4906  0.0266
  332SOL    HW1 2437   4.176   4.513   7.350  0.1639  0.0598 -1.0428
  332SOL    HW2 2438   4.114   4.494   7.214 -0.7125 -2.5845 -0.3440
  333SOL     OW 2439   0.970   3.310   4.144 -0.2925 -0.1616 -0.2054
  333SOL    HW1 2440   1.022   3.317   4.064 -0.1614 -0.1343 -0.1195
  333SOL    HW2 2441   0.899   3.250   4.122 -0.0060 -0.4995 -0.2091
  334SOL     OW 2442   0.871   2.994   5.883 -0.0814 -0.6234  0.1392
  334SOL    HW1 2443   0.825   2.983   5.966 -1.1192  0.4591 -0.2587
  334SOL    HW2 2444   0.893   2.905   5.856  0.6747 -0.9710  1.7642
  335SOL     OW 2445   7.218   2.018   7.313  0.7810  0.3326  0.5836
  335SOL    HW1 2446   7.243   2.007   7.221  1.0967 -1.9186  0.8709
  335SOL    HW2 2447   7.123   2.030   7.310  0.4588 -1.8962  0.0156
  336SOL     OW 2448   2.688   0.768   1.621  0.1712 -0.1445 -0.1385
  336SOL    HW1 2449   2.625   0.840   1.625  0.4733  0.1115  0.0433
  336SOL    HW2 2450   2.708   0.760   1.528 -1.6785 -1.5900 -0.4651
  337SOL     OW 2451   7.225   1.051   0.286  0.6385 -0.5656 -0.2743
  337SOL    HW1 2452   7.252   1.105   0.360 -1.5380  0.7387 -0.3390
  337SOL    HW2 2453   7.189   0.972   0.326  0.9131 -0.5675 -0.0282
  338SOL     OW 2454   7.737   6.793   0.409  0.2133 -0.6623  0.3846
  338SOL    HW1 2455   7.697   6.711   0.382 -1.1058  0.1384 -0.2183
  338SOL    HW2 2456   7.682   6.861   0.368  1.3067  0.5119  0.7972
  339SOL     OW 2457   2.887   0.075   8.293  0.1913  0.0956  0.5986
  339SOL    HW1 2458   2.806   0.115   8.324  0.7312  1.2867  0.5278
  339SOL    HW2 2459   2.931   0.046   8.373  0.1463  0.3360  0.7118
  340SOL     OW 2460   0.227   6.591   2.758  0.4565 -0.5515  0.5425
  340SOL    HW1 2461   0.318   6.584   2.786  0.2732  0.0325  1.3077
  340SOL    HW2 2462   0.184   6.517   2.800  0.5435 -0.7550  0.2815
  341SOL     OW 2463   6.572   7.622   8.849  0.4787 -0.0329 -0.1845
  341SOL    HW1 2464   6.613   7.699   8.889 -0.7532  0.4185  0.2639
  341SOL    HW2 2465   6.548   7.652   8.761 -1.5678  0.7112  0.5642
  342SOL     OW 2466   4.641   6.164   9.497  0.6533  0.3297 -0.1491
  342SOL    HW1 2467   4.674   6.165   9.586  3.5899 -0.0280 -1.1425
  342SOL    HW2 2468   4.633   6.256   9.473 -2.6392  0.5508  1.1867
  343SOL     OW 2469   1.214   6.196   3.528  0.5755 -0.0819 -0.2935
  343SOL    HW1 2470   1.189   6.199   3.435  0.7878  0.4117 -0.3384
  343SOL    HW2 2471   1.231   6.287   3.551  0.0692 -0.1452  0.3625
  344SOL     OW 2472   4.500   3.128   7.039 -0.1726 -0.2702 -0.4101
  344SOL    HW1 2473   4.478   3.138   7.131 -2.0396  1.6533 -0.9994
  344SOL    HW2 2474   4.528   3.215   7.011 -1.1693 -0.4145 -1.9981
  345SOL     OW 2475   4.039   3.598   6.541 -0.2889 -0.2720  0.1310
  345SOL    HW1 2476   3.963   3.657   6.544 -0.0043  0.1668 -0.8457
  345SOL    HW2 2477   4.096   3.637   6.475  0.3135 -1.1771  0.1080
  346SOL     OW 2478   0.720   3.995   8.953 -0.0979 -0.3664  0.2243
  346SOL    HW1 2479   0.661   3.978   8.879 -0.5413  0.1758  0.4473
  346SOL    HW2 2480   0.733   3.909   8.993 -1.0014 -0.4592  0.3603
  347SOL     OW 2481   1.908   2.163   0.635 -0.3447 -0.3850 -0.0664
  347SOL    HW1 2482   1.862   2.247   0.641  1.0537  0.3077  2.3059
  347SOL    HW2 2483   1.838   2.098   0.635 -1.4159  0.7266 -0.1758
  348SOL     OW 2484   1.518   2.872   8.798  0.3242 -0.0183 -0.0502
  348SOL    HW1 2485   1.535   2.784   8.831 -0.5597 -0.2049 -0.0541
  348SOL    HW2 2486   1.585   2.927   8.839  2.3130 -1.0267 -1.7795
  349SOL     OW 2487   6.056   1.328   8.674  0.2865  0.2681  0.1363
  349SOL    HW1 2488   6.110   1.250   8.686  0.1877  0.0725 -0.6257
  349SOL    HW2 2489   5.988   1.300   8.612 -0.1306  0.7743  0.3611
  350SOL     OW 2490   7.899   2.440   9.409  0.3323  0.2552 -0.4413
  350SOL    HW1 2491   7.874   2.437   9.502  0.5164 -0.7207 -0.4021
  350SOL    HW2 2492   7.915   2.348   9.387  1.6590  0.6144 -1.0693
  351SOL     OW 2493   7.191   7.928   4.821 -0.4433  0.2720 -0.3558
  351SOL    HW1 2494   7.265   7.899   4.769  0.0741 -0.6434  0.8514
  351SOL    HW2 2495   7.229   7.981   4.891 -0.6816 -1.6949  1.3473
  352SOL     OW 2496   5.631   0.886   5.133 -0.8876  0.2650 -0.2722
  352SOL    HW1 2497   5.551   0.874   5.081 -0.2093 -0.2190 -1.2523
  352SOL    HW2 2498   5.657   0.977   5.118 -1.7840  0.7263  0.8590
  353SOL     OW 2499   1.384   2.106  12.333 -0.3301 -0.3070  0.5744
  353SOL    HW1 2500   1.399   2.152  12.250 -0.1776 -0.6062  0.4344
  353SOL    HW2 2501   1.420   2.165  12.399  0.7155 -0.6287  0.3165
  354SOL     OW 2502   7.740   5.959  10.841  0.3000  0.2289  0.1687
  354SOL    HW1 2503   7.703   5.968  10.753  1.7953 -2.3533 -0.8196
  354SOL    HW2 2504   7.830   5.930  10.827  0.5166 -0.4963  2.5664
  355SOL     OW 2505   4.815   5.088   1.724 -0.1827 -0.3473 -0.1006
  355SOL    HW1 2506   4.887   5.146   1.747 -1.4010  0.9641  0.5748
  355SOL    HW2 2507   4.809   5.093   1.628  1.2292 -1.2806 -0.2679
  356SOL     OW 2508   6.466   5.282  11.622 -0.0955 -0.3859  0.0849
  356SOL    HW1 2509   6.430   5.368  11.599  1.0995  0.0280 -0.2687
  356SOL    HW2 2510   6.390   5.223  11.617 -0.4681  0.1672 -2.2292
  357SOL     OW 2511   5.755   5.898   9.909  0.1435 -0.3469  0.0600
  357SOL    HW1 2512   5.797   5.982   9.892  0.0530 -0.5930 -1.5282
  357SOL    HW2 2513   5.769   5.847   9.829 -1.7082 -1.0378  0.1219
  358SOL     OW 2514   6.132   5.742   6.892  0.2690  0.1349  0.2108
  358SOL    HW1 2515   6.108   5.718   6.803  2.8375  1.2266 -0.8553
  358SOL    HW2 2516   6.200   5.679   6.916 -1.7114 -1.4229  2.2570
  359SOL     OW 2517   0.494   1.477   2.738 -0.2553 -0.2760  0.7552
  359SOL    HW1 2518   0.520   1.417   2.668 -0.9164  0.5275 -0.1997
  359SOL    HW2 2519   0.435   1.424   2.793 -0.5092 -0.6418  0.1549
  360SOL     OW 2520   1.628   6.912   7.859 -0.0231  0.1766  0.4328
  360SOL    HW1 2521   1.543   6.955   7.872 -0.2031 -0.2802  0.7903
  360SOL    HW2 2522   1.683   6.947   7.930 -0.3544 -0.6483  1.1046
  361SOL     OW 2523   4.354   4.720   0.982 -0.7186 -0.3166  0.1916
  361SOL    HW1 2524   4.365   4.807   1.021 -2.1928  0.6154 -1.3008
  361SOL    HW2 2525   4.424   4.715   0.917 -0.3542 -0.4271  0.5944
  362SOL     OW 2526   4.899   7.547  12.356 -0.1259  0.1910  0.0131
  362SOL    HW1 2527   4.818   7.572  12.399 -0.6190  1.0981 -1.3673
  362SOL    HW2 2528   4.873   7.482  12.290  0.2909  0.3173 -0.2824
  363SOL     OW 2529   0.402   0.282   8.640 -1.0282  0.0606 -0.5921
  363SOL    HW1 2530   0.453   0.357   8.674 -1.4800  0.6118 -1.1181
  363SOL    HW2 2531   0.443   0.262   8.556 -0.7999 -0.3974 -0.3723
  364SOL     OW 2532   3.566   5.822  10.525  0.3585  0.1866  0.1993
  364SOL    HW1 2533   3.521   5.739  10.543  1.2125 -0.3038  0.1235
  364SOL    HW2 2534   3.642   5.821  10.583 -0.1694  1.4040  0.9681
  365SOL     OW 2535   3.702   5.244  11.782 -0.3915 -0.1550  0.2263
  365SOL    HW1 2536   3.650   5.191  11.722 -0.0502  0.1992 -0.3923
  365SOL    HW2 2537   3.789   5.248  11.741  0.1924 -0.8871  1.3187
  366SOL     OW 2538   0.402   6.537   1.358  0.1105  0.0842  0.6118
  366SOL    HW1 2539   0.413   6.631   1.373 -2.4748  0.6023 -0.3493
  366SOL    HW2 2540   0.444   6.521   1.273  1.4194  0.1288  1.2230
  367SOL     OW 2541   1.690   1.711   3.814 -0.4985 -0.0861 -0.5928
  367SOL    HW1 2542   1.658   1.683   3.728 -0.2661 -0.4594 -0.5605
  367SOL    HW2 2543   1.676   1.806   3.816  0.1350  0.0273 -1.3107
  368SOL     OW 2544   5.160   1.128   9.813 -0.0200  0.0616  0.0592
  368SOL    HW1 2545   5.250   1.104   9.791  0.3724  0.1440  1.4623
  368SOL    HW2 2546   5.106   1.070   9.760  0.8839 -2.0813  1.3205
  369SOL     OW 2547   2.503   5.568  10.884  0.0569 -0.2221  0.0222
  369SOL    HW1 2548   2.512   5.663  10.879 -0.2759 -0.2187 -0.6802
  369SOL    HW2 2549   2.409   5.554  10.896  0.0255 -0.4809 -0.5119
  370SOL     OW 2550   7.242   0.489   1.646  0.1079  0.0122  0.2770
  370SOL    HW1 2551   7.260   0.398   1.622  4.1590  1.0192 -1.2823
  370SOL    HW2 2552   7.272   0.496   1.737  0.9437  0.0239  0.0086
  371SOL     OW 2553   6.816   7.589   2.664  0.5224  0.3593  0.2830
  371SOL    HW1 2554   6.821   7.514   2.722 -1.7084 -0.5134 -0.5496
  371SOL    HW2 2555   6.727   7.624   2.677  0.3679  0.8434 -1.6986
  372SOL     OW 2556   6.418   2.562   8.457 -0.7429 -0.8938 -0.2845
  372SOL    HW1 2557   6.432   2.469   8.440 -0.7002 -1.4080  2.1429
  372SOL    HW2 2558   6.358   2.591   8.388 -0.1556 -2.5207 -1.5258
  373SOL     OW 2559   1.706   2.584   5.347  0.6403  0.4165 -0.2537
  373SOL    HW1 2560   1.794   2.613   5.323  1.4181 -0.5309  1.3034
  373SOL    HW2 2561   1.704   2.593   5.442 -1.3536  1.4626 -0.3484
  374SOL     OW 2562   3.460   5.087   3.873  0.4393 -0.3947 -0.6079
  374SOL    HW1 2563   3.379   5.134   3.852 -0.5219 -1.7921 -0.2137
  374SOL    HW2 2564   3.527   5.128   3.819 -0.4738  0.9864 -0.7346
  375SOL     OW 2565   3.848   4.033   3.036 -0.0939  0.1028 -0.3999
  375SOL    HW1 2566   3.766   4.018   3.083  0.8398 -1.2536  0.8777
  375SOL    HW2 2567   3.823   4.034   2.943 -1.2335 -3.2364 -0.2645
  376SOL     OW 2568   0.819   0.347   5.935  0.4042 -0.1938 -0.3435
  376SOL    HW1 2569   0.810   0.372   6.027 -0.1982 -0.4773 -0.3176
  376SOL    HW2 2570   0.906   0.379   5.909 -0.7926  3.1016 -0.7031
  377SOL     OW 2571   1.580   7.525  10.021 -0.1245  0.0152  0.0886
  377SOL    HW1 2572   1.556   7.530   9.929 -3.3623  0.5858  0.8616
  377SOL    HW2 2573   1.499   7.502  10.066  1.7051 -2.0727  2.6719
  378SOL     OW 2574   2.263   5.733  11.937  0.1054 -0.1601 -0.6206
  378SOL    HW1 2575   2.263   5.641  11.912  0.5608 -0.6207  1.0099
  378SOL    HW2 2576   2.355   5.758  11.937  0.1343 -0.2079  0.6562
  379SOL     OW 2577   7.626   6.958   8.808 -0.4205 -0.4059 -0.0852
  379SOL    HW1 2578   7.562   6.951   8.738  0.5103 -0.9980 -0.9029
  379SOL    HW2 2579   7.687   6.886   8.793  1.3465  1.0455 -0.2855
  380SOL     OW 2580   0.957   2.964   8.962  0.2927 -0.1363  0.1471
  380SOL    HW1 2581   0.943   2.907   8.887 -0.9343 -0.5048  0.6299
  380SOL    HW2 2582   0.896   2.932   9.028  0.1095  1.2758  0.6933
  381SOL     OW 2583   1.833   7.749   1.069  0.9407  0.4367 -0.5687
  381SOL    HW1 2584   1.837   7.721   1.160 -1.0440  0.4372 -0.4309
  381SOL    HW2 2585   1.833   7.845   1.073 -2.0406  0.5427 -0.2525
  382SOL     OW 2586   0.593   5.687   3.784 -0.1144  0.3258 -0.0570
  382SOL    HW1 2587   0.572   5.724   3.870 -0.2822 -1.0667  0.5174
  382SOL    HW2 2588   0.534   5.732   3.724 -1.0225  0.2680  0.7704
  383SOL     OW 2589   7.043   7.453   5.418 -0.3985 -0.0684  0.1116
  383SOL    HW1 2590   7.005   7.444   5.330  0.3832  0.2524 -0.2754
  383SOL    HW2 2591   7.012   7.538   5.449 -1.4571 -0.6010  0.5533
  384SOL     OW 2592   7.044   1.925   6.554  0.0567 -0.0996 -0.4444
  384SOL    HW1 2593   7.063   1.893   6.466  0.4877 -0.5482 -0.1903
  384SOL    HW2 2594   7.125   1.969   6.581 -0.9130  2.3552 -1.2794
  385SOL     OW 2595   3.612   6.821   4.200  0.2217 -0.3958  0.9783
  385SOL    HW1 2596   3.636   6.736   4.164 -1.7415 -0.5315 -0.1589
  385SOL    HW2 2597   3.690   6.875   4.190  0.8955 -1.5273 -0.0615
  386SOL     OW 2598   1.422   0.453   4.288 -0.0131 -0.0415  0.6005
  386SOL    HW1 2599   1.392   0.371   4.328 -1.6964 -0.2852 -1.0045
  386SOL    HW2 2600   1.499   0.428   4.236  0.5379 -0.2371  1.4920
  387SOL     OW 2601   0.234   0.007   6.109  0.4544 -0.0625 -0.0912
  387SOL    HW1 2602   0.309   0.028   6.164  0.3915 -0.4305  0.1365
  387SOL    HW2 2603   0.221  -0.087   6.121 -0.9543  0.2547  1.0068
  388SOL     OW 2604   1.769   3.686   3.778 -0.0095  0.0756 -0.6665
  388SOL    HW1 2605   1.743   3.776   3.760  0.2671 -0.3446 -3.6537
  388SOL    HW2 2606   1.694   3.648   3.825 -1.0067  1.2970 -1.2128
  389SOL     OW 2607   3.463   5.562   8.614 -0.6409 -0.2777  0.4128
  389SOL    HW1 2608   3.475   5.657   8.605  0.7694 -0.5138 -0.4563
  389SOL    HW2 2609   3.549   5.529   8.636 -1.1495 -1.3604  0.8553
  390SOL     OW 2610   3.602   1.675   2.592 -0.3946  0.2413  0.3478
  390SOL    HW1 2611   3.676   1.660   2.533 -1.7816  0.0632 -1.4580
  390SOL    HW2 2612   3.533   1.617   2.559 -1.5757  0.9220  1.5068
  391SOL     OW 2613   5.792   0.208   8.168  0.0280 -0.0683 -0.4886
  391SOL    HW1 2614   5.877   0.240   8.199  0.8964 -0.2359 -2.5182
  391SOL    HW2 2615   5.776   0.257   8.087 -0.5696 -1.8285 -1.4852
  392SOL     OW 2616   2.385   0.925   4.073 -0.4939  0.2859  0.3027
  392SOL    HW1 2617   2.442   1.000   4.057 -1.8841  1.4332  0.5851
  392SOL    HW2 2618   2.372   0.923   4.167  0.5048 -1.0859  0.4488
  393SOL     OW 2619   7.629   2.949   0.390  0.5254  0.2091 -0.8267
  393SOL    HW1 2620   7.659   2.859   0.380  1.7942  0.6690 -1.3935
  393SOL    HW2 2621   7.535   2.945   0.377  0.6327 -0.9703 -1.3330
  394SOL     OW 2622   6.302   5.154   6.217  0.3958  0.4208 -0.2351
  394SOL    HW1 2623   6.326   5.076   6.267 -0.0258  0.3210 -0.1861
  394SOL    HW2 2624   6.360   5.152   6.141 -0.1384 -0.3774 -0.6430
  395SOL     OW 2625   2.166   7.123  10.919 -0.1527  0.1203  0.1880
  395SOL    HW1 2626   2.139   7.112  10.828  2.6892  0.8022 -0.8299
  395SOL    HW2 2627   2.242   7.067  10.929  0.2915  0.9404  1.8037
  396SOL     OW 2628   7.495   1.016  11.512  0.7019 -0.2178 -0.5405
  396SOL    HW1 2629   7.479   1.074  11.437 -0.7076 -1.5149 -1.3125
  396SOL    HW2 2630   7.454   0.933  11.487  2.0000 -1.3377  0.8309
  397SOL     OW 2631   1.371   7.454   3.978 -0.8331  0.1242  0.0531
  397SOL    HW1 2632   1.300   7.390   3.986 -2.1072  1.5811  0.8806
  397SOL    HW2 2633   1.376   7.496   4.063  0.3998  0.7308 -0.2881
  398SOL     OW 2634   1.518   1.976   0.614 -0.6168  0.1351 -0.3598
  398SOL    HW1 2635   1.476   2.035   0.551 -1.8547 -0.1848  0.1323
  398SOL    HW2 2636   1.514   2.023   0.697  0.9412  0.5192 -0.4707
  399SOL     OW 2637   1.917   7.808  11.370 -0.9802  0.3115 -0.1356
  399SOL    HW1 2638   1.956   7.731  11.413 -2.0815 -0.1687  0.0283
  399SOL    HW2 2639   1.940   7.798  11.278  0.8926  1.0381  0.2012
  400SOL     OW 2640   6.115   6.222   4.611  0.4613  0.0140  0.1620
  400SOL    HW1 2641   6.144   6.304   4.652  1.8141 -0.3050 -0.1149
  400SOL    HW2 2642   6.187   6.161   4.626 -0.0412 -0.7928 -0.6274
  401SOL     OW 2643   6.759   2.893   6.832 -0.2356  0.4510 -0.4420
  401SOL    HW1 2644   6.783   2.922   6.744  0.3548 -0.3110 -0.5536
  401SOL    HW2 2645   6.824   2.933   6.889  0.1853 -0.0963 -0.5210
  402SOL     OW 2646   1.552   0.291   8.980 -0.2569 -0.6622 -0.2563
  402SOL    HW1 2647   1.505   0.372   9.000 -0.5192 -0.9614  0.3568
  402SOL    HW2 2648   1.585   0.304   8.891  0.1782  0.3324  0.0386
  403SOL     OW 2649   6.453   5.170   5.712 -0.4090 -0.3207 -0.7047
  403SOL    HW1 2650   6.469   5.226   5.636 -0.2673  0.0267 -0.4174
  403SOL    HW2 2651   6.440   5.083   5.674  1.5636 -0.5196 -1.0111
  404SOL     OW 2652   2.422   1.688   3.577  0.1549 -0.5405  0.4837
  404SOL    HW1 2653   2.452   1.634   3.504  0.4445 -0.6560  0.6863
  404SOL    HW2 2654   2.326   1.687   3.571  0.1607 -1.0820  0.4911
  405SOL     OW 2655   5.813   2.507   8.848 -0.0903 -0.0504  0.3009
  405SOL    HW1 2656   5.884   2.475   8.903  2.7797  2.8198 -1.4278
  405SOL    HW2 2657   5.747   2.539   8.910  0.8210 -1.2843  1.9729
  406SOL     OW 2658   7.242   3.662   7.142  0.9498 -0.1296  0.1186
  406SOL    HW1 2659   7.288   3.585   7.109  0.3038 -0.5509  0.1799
  406SOL    HW2 2660   7.222   3.641   7.233 -0.6594 -0.5884 -0.3104
  407SOL     OW 2661   3.264   6.025   3.128  0.2423  0.2342  0.4803
  407SOL    HW1 2662   3.189   6.057   3.079 -1.6394 -0.5213  2.7017
  407SOL    HW2 2663   3.334   6.088   3.110  0.9719 -1.7108 -5.8196
  408SOL     OW 2664   0.574   3.658   7.569  0.1181 -0.0021  0.2792
  408SOL    HW1 2665   0.652   3.707   7.541 -2.1777  2.8177 -1.8549
  408SOL    HW2 2666   0.528   3.718   7.627 -0.5107 -1.6050  1.4966
  409SOL     OW 2667   5.516   3.379   1.377  0.0091 -0.2294 -0.3358
  409SOL    HW1 2668   5.493   3.292   1.344 -0.4204 -0.5733  0.8437
  409SOL    HW2 2669   5.551   3.364   1.464  2.1373  0.5778 -0.9916
  410SOL     OW 2670   6.633   1.511   8.398  0.2457  0.3416 -0.1653
  410SOL    HW1 2671   6.620   1.601   8.368 -0.6729  0.6298  0.9908
  410SOL    HW2 2672   6.642   1.519   8.493 -0.7547 -0.8474  0.0612
  411SOL     OW 2673   0.321   1.071   7.456 -0.2327  0.3189 -0.2884
  411SOL    HW1 2674   0.304   1.159   7.489 -2.7794  0.0204 -0.6683
  411SOL    HW2 2675   0.338   1.083   7.363  1.3167  0.5485 -0.0150
  412SOL     OW 2676   4.186   6.442   4.681  0.1489 -0.1808  0.0563
  412SOL    HW1 2677   4.227   6.437   4.595  0.0935 -0.3182  0.0367
  412SOL    HW2 2678   4.093   6.456   4.662  0.1782  0.0791  0.0991
  413SOL     OW 2679   5.180   4.419   6.462 -0.6100 -0.1567  0.2361
  413SOL    HW1 2680   5.259   4.400   6.412  0.0859  3.0001 -0.1175
  413SOL    HW2 2681   5.209   4.419   6.554 -0.0698  1.1930  0.0950
  414SOL     OW 2682   1.804   3.306   0.225 -0.3800 -0.3559  0.0870
  414SOL    HW1 2683   1.730   3.364   0.244 -0.5978 -1.1260  1.7878
  414SOL    HW2 2684   1.874   3.364   0.198 -0.9738  0.5827  0.5132
  415SOL     OW 2685   6.939   2.183   5.869 -0.0983  0.1794  0.2432
  415SOL    HW1 2686   7.008   2.209   5.808  0.0513 -1.5413 -0.3687
  415SOL    HW2 2687   6.950   2.242   5.943  0.1749  1.8608 -1.0487
  416SOL     OW 2688   6.800   0.906  10.946 -0.0942 -0.0614 -0.4931
  416SOL    HW1 2689   6.853   0.934  10.871  1.7736 -1.5664  0.1865
  416SOL    HW2 2690   6.748   0.983  10.968  1.5150  1.3776 -1.4762
  417SOL     OW 2691   5.335   6.822   1.773  0.3741  0.2884  0.3637
  417SOL    HW1 2692   5.428   6.806   1.756 -0.3057 -2.1888 -1.6772
  417SOL    HW2 2693   5.319   6.910   1.739  1.6082 -0.0087 -1.0895
  418SOL     OW 2694   7.003   1.602  12.067  0.6406  0.5093  1.0180
  418SOL    HW1 2695   7.066   1.559  12.010 -0.9239  0.8221 -1.0859
  418SOL    HW2 2696   7.015   1.695  12.049 -2.3716  0.5300 -1.8968
  419SOL     OW 2697   4.607   0.138   2.770  0.1658 -0.7214  0.4234
  419SOL    HW1 2698   4.672   0.177   2.829 -1.2833  0.2936  1.4115
  419SOL    HW2 2699   4.555   0.212   2.740 -0.5630 -1.5247 -0.3375
  420SOL     OW 2700   7.150   0.937   9.086  0.2632 -1.0623  0.4484
  420SOL    HW1 2701   7.100   0.931   9.004 -0.8185  1.4395  0.8002
  420SOL    HW2 2702   7.231   0.982   9.061  0.0041 -0.4469  0.6780
  421SOL     OW 2703   7.423   0.743   2.266  0.1317  0.0592 -0.0533
  421SOL    HW1 2704   7.486   0.750   2.338 -0.3771  1.6733  0.2794
  421SOL    HW2 2705   7.351   0.800   2.292  0.2734  1.3217 -2.1846
  422SOL     OW 2706   4.770   1.236   0.199  0.3340 -0.2855  0.7208
  422SOL    HW1 2707   4.721   1.170   0.149 -0.9375  1.1097  0.0694
  422SOL    HW2 2708   4.790   1.192   0.283  0.6039 -1.9010 -0.1406
  423SOL     OW 2709   0.115   2.606   3.081  0.4092 -0.9010 -0.2112
  423SOL    HW1 2710   0.084   2.517   3.094  2.3204 -1.3767  1.7619
  423SOL    HW2 2711   0.208   2.603   3.106  0.8475  1.3772 -1.2682
  424SOL     OW 2712   7.163   4.522   7.272 -0.6070  0.2432 -0.6586
  424SOL    HW1 2713   7.139   4.578   7.345  1.7005 -0.1726  0.5167
  424SOL    HW2 2714   7.257   4.535   7.262 -0.9760  1.2897 -4.4481
  425SOL     OW 2715   3.705   7.077  11.380 -0.0043 -0.7757 -0.0320
  425SOL    HW1 2716   3.760   7.139  11.331  0.3543  0.4940  1.8677
  425SOL    HW2 2717   3.767   7.022  11.427 -0.3428 -2.0562 -1.0369
  426SOL     OW 2718   5.858   2.875   6.850 -0.3663 -0.3761 -0.0714
  426SOL    HW1 2719   5.832   2.951   6.799 -1.2901  0.3126  1.3761
  426SOL    HW2 2720   5.792   2.808   6.829  0.3416 -0.7635 -1.1993
  427SOL     OW 2721   1.969   0.762   8.678  0.1511  0.4789  0.2393
  427SOL    HW1 2722   1.922   0.802   8.751  0.0406  0.6938  0.0515
  427SOL    HW2 2723   1.916   0.783   8.601  1.5152  2.3633 -0.2570
  428SOL     OW 2724   5.370   5.711   2.530  0.4287  0.1510  0.4460
  428SOL    HW1 2725   5.387   5.746   2.442  1.6356 -1.1790  0.1238
  428SOL    HW2 2726   5.419   5.769   2.588 -0.1607  0.8796  0.2345
  429SOL     OW 2727   0.383   4.331   6.465  0.3748  0.1366 -0.2038
  429SOL    HW1 2728   0.381   4.426   6.453 -1.4028  0.1000 -0.5017
  429SOL    HW2 2729   0.429   4.298   6.388  0.9042  0.7412 -0.1544
  430SOL     OW 2730   2.896   3.922   8.147 -0.1134  0.2615  0.8218
  430SOL    HW1 2731   2.872   3.835   8.177  2.3758 -1.2815 -1.2070
  430SOL    HW2 2732   2.985   3.935   8.181  0.5746  0.8141 -1.0466
  431SOL     OW 2733   1.922   0.584   4.125 -1.0856 -0.4056  0.3149
  431SOL    HW1 2734   1.994   0.648   4.130 -0.3830 -1.0079 -1.3403
  431SOL    HW2 2735   1.957   0.505   4.165 -1.1363 -0.4308  0.3093
  432SOL     OW 2736   5.289   4.416   6.752  0.9536  0.5471 -0.6138
  432SOL    HW1 2737   5.371   4.375   6.776  0.0089  0.9995  4.4684
  432SOL    HW2 2738   5.224   4.345   6.756  0.2826  1.2048  1.8148
  433SOL     OW 2739   7.141   6.795   6.358  0.5502  0.6596  0.2270
  433SOL    HW1 2740   7.116   6.790   6.266  1.8622  0.0115 -0.1198
  433SOL    HW2 2741   7.124   6.707   6.393 -2.2716  1.5352  1.2836
  434SOL     OW 2742   2.484   6.012   6.801  0.2739  0.3129  0.5900
  434SOL    HW1 2743   2.468   6.008   6.895 -0.1723 -0.5839  0.4859
  434SOL    HW2 2744   2.471   6.104   6.778 -1.5207  0.2105  1.0836
  435SOL     OW 2745   1.694   3.684  11.348  0.0767  0.3709  0.4994
  435SOL    HW1 2746   1.749   3.615  11.384  0.2358  0.9274  1.3528
  435SOL    HW2 2747   1.624   3.637  11.302  1.3800 -0.3396 -0.8311
  436SOL     OW 2748   3.361   7.930   3.024 -0.3014  0.1262 -0.2910
  436SOL    HW1 2749   3.288   7.981   3.058 -0.4413 -0.2762  0.0197
  436SOL    HW2 2750   3.362   7.949   2.930  0.1561  1.3239 -0.0664
  437SOL     OW 2751   0.541   0.654   1.671 -0.4651 -0.8911  0.0983
  437SOL    HW1 2752   0.527   0.610   1.587 -0.2840  0.7874 -0.8521
  437SOL    HW2 2753   0.635   0.645   1.687 -0.3788 -0.6185 -0.2375
  438SOL     OW 2754   7.667   2.340   4.430 -0.0316 -0.1244  0.2137
  438SOL    HW1 2755   7.616   2.327   4.350 -1.2718 -0.3280  0.9933
  438SOL    HW2 2756   7.656   2.258   4.478  0.2745  0.1805  0.8088
  439SOL     OW 2757   4.413   6.767   2.380  0.1680 -0.3716 -0.0168
  439SOL    HW1 2758   4.418   6.714   2.300  1.4614 -0.0286 -0.1983
  439SOL    HW2 2759   4.340   6.828   2.363  1.5134  0.8990 -1.7605
  440SOL     OW 2760   7.398   6.396   0.546 -0.8232  0.0267 -0.7490
  440SOL    HW1 2761   7.372   6.449   0.470  0.0253 -0.0277 -1.0889
  440SOL    HW2 2762   7.430   6.314   0.509  1.6707  0.7987 -0.5449
  441SOL     OW 2763   6.475   5.894   4.633 -0.1879  0.1158 -0.3752
  441SOL    HW1 2764   6.417   5.854   4.568  1.4725 -1.8613 -0.7628
  441SOL    HW2 2765   6.511   5.819   4.681  0.9438  1.3632  0.7848
  442SOL     OW 2766   2.409   0.491   3.280 -0.2545  0.7467  0.3274
  442SOL    HW1 2767   2.394   0.404   3.244  0.0610  0.6352  0.4582
  442SOL    HW2 2768   2.388   0.483   3.373 -0.4754  0.8770  0.2900
  443SOL     OW 2769   5.750   3.733   7.777  0.8076 -0.0579 -0.1629
  443SOL    HW1 2770   5.834   3.779   7.779  0.4167  0.7547 -1.2915
  443SOL    HW2 2771   5.696   3.780   7.840  0.3487  1.2364 -1.4451
  444SOL     OW 2772   0.335   6.905  11.984  0.3236 -0.2448  0.0970
  444SOL    HW1 2773   0.408   6.918  12.045  0.2490 -0.7341  0.2961
  444SOL    HW2 2774   0.273   6.975  12.007  0.5948 -0.0139  0.1303
  445SOL     OW 2775   2.035   7.435   3.429  0.6292  0.4023 -0.0015
  445SOL    HW1 2776   1.996   7.465   3.512 -1.0789 -0.2228 -0.5407
  445SOL    HW2 2777   2.102   7.500   3.409  1.1545  0.5100  1.9197
  446SOL     OW 2778   6.731   6.786   2.570 -1.2869 -0.2094 -0.7992
  446SOL    HW1 2779   6.642   6.796   2.536 -1.8003 -1.9330 -0.0719
  446SOL    HW2 2780   6.761   6.702   2.535 -0.0989  0.1401 -0.6714
  447SOL     OW 2781   3.418   0.022   5.303  0.0438  0.0211 -0.1510
  447SOL    HW1 2782   3.338  -0.017   5.340 -0.0830  1.7768  1.5404
  447SOL    HW2 2783   3.486   0.004   5.367  0.0231  2.3218  0.5851
  448SOL     OW 2784   7.281   5.077   3.981 -0.4069  0.0078  0.0513
  448SOL    HW1 2785   7.215   5.129   4.027 -0.7713  0.4143 -0.9033
  448SOL    HW2 2786   7.263   5.091   3.888  0.6349 -0.3751 -0.2323
  449SOL     OW 2787   5.128   3.288   3.437  0.3829 -0.1902 -0.4154
  449SOL    HW1 2788   5.069   3.265   3.509  0.7436 -0.4973 -0.2134
  449SOL    HW2 2789   5.202   3.330   3.480  0.3772  0.0626 -0.6549
  450SOL     OW 2790   6.037   5.927   1.745 -0.0365  0.1015 -0.5168
  450SOL    HW1 2791   6.105   5.905   1.682  1.8580 -0.0581  1.4585
  450SOL    HW2 2792   6.022   6.021   1.732 -1.5504 -0.3735 -2.8285
  451SOL     OW 2793   6.996   6.396   9.596  0.1047 -0.2675  0.2261
  451SOL    HW1 2794   6.953   6.413   9.512  0.7786  0.9080  0.0900
  451SOL    HW2 2795   7.087   6.377   9.573  0.5189  0.9863  0.7200
  452SOL     OW 2796   4.992   2.094   0.164  0.1559 -0.5198  0.4449
  452SOL    HW1 2797   5.012   2.148   0.088  0.4464  0.6752  1.3491
  452SOL    HW2 2798   4.905   2.058   0.145 -0.5745  1.2239  0.3322
  453SOL     OW 2799   6.355   4.682   1.740  0.0530  0.1241  0.2756
  453SOL    HW1 2800   6.331   4.746   1.674 -0.4816  1.6130  1.8414
  453SOL    HW2 2801   6.311   4.601   1.713  0.6488  0.3995 -1.6700
  454SOL     OW 2802   3.979   1.020   5.338  0.3596 -1.1761 -0.0543
  454SOL    HW1 2803   4.074   1.017   5.336  0.3567 -3.8288 -1.4276
  454SOL    HW2 2804   3.952   0.968   5.262 -2.1841 -0.6883  0.4230
  455SOL     OW 2805   1.372   0.276   3.525  0.1095 -0.0029 -0.3024
  455SOL    HW1 2806   1.402   0.203   3.580  0.8703  1.9741  2.0848
  455SOL    HW2 2807   1.434   0.277   3.452  2.0556  0.1172  1.2673
  456SOL     OW 2808   3.524   3.121  11.238 -0.1224  0.0160  0.3074
  456SOL    HW1 2809   3.533   3.119  11.333 -0.7547  3.6274  0.5847
  456SOL    HW2 2810   3.595   3.178  11.208  0.5018 -1.6103 -1.5166
  457SOL     OW 2811   3.895   1.386   9.311 -1.0380  0.1913 -0.5212
  457SOL    HW1 2812   3.986   1.367   9.337 -1.0466 -0.7482 -1.0992
  457SOL    HW2 2813   3.858   1.432   9.385 -0.5059 -0.7135  0.3391
  458SOL     OW 2814   2.247   6.272   9.074  0.1274  0.4108  0.2848
  458SOL    HW1 2815   2.327   6.236   9.112 -0.3643 -0.2597  0.7015
  458SOL    HW2 2816   2.182   6.267   9.145 -0.5121  0.1372 -0.3054
  459SOL     OW 2817   2.580   4.889   9.588  0.0175  0.1235  0.0743
  459SOL    HW1 2818   2.588   4.847   9.674 -0.4680 -1.4777 -0.6060
  459SOL    HW2 2819   2.658   4.860   9.540  0.7171  1.6921  0.2211
  460SOL     OW 2820   5.452   3.115  11.124 -0.4206 -0.0550 -0.3894
  460SOL    HW1 2821   5.433   3.031  11.082  1.2310  0.3461 -2.1244
  460SOL    HW2 2822   5.506   3.162  11.059 -0.8691  2.1371  0.7315
  461SOL     OW 2823   0.790   5.588   3.490 -1.2971 -0.6129  0.4155
  461SOL    HW1 2824   0.721   5.523   3.497 -0.2172 -1.6560  4.6252
  461SOL    HW2 2825   0.794   5.628   3.577  0.2595  2.8702 -1.0338
  462SOL     OW 2826   0.049   7.514   7.493  0.4949  0.9797  0.6875
  462SOL    HW1 2827   0.006   7.584   7.443  2.4350  1.6338 -0.1661
  462SOL    HW2 2828   0.068   7.554   7.578  1.4557  1.4730  0.2563
  463SOL     OW 2829   6.063   6.934   7.858  0.0421  0.2194  0.4608
  463SOL    HW1 2830   6.064   6.923   7.763 -0.3798  1.0682  0.3428
  463SOL    HW2 2831   6.093   6.850   7.893 -0.9649 -0.5209 -0.3932
  464SOL     OW 2832   7.083   2.306   4.966 -0.2041  0.2428  0.4713
  464SOL    HW1 2833   7.039   2.379   5.010 -0.4543  0.1631  0.3550
  464SOL    HW2 2834   7.023   2.280   4.896 -0.4939 -0.5900  1.0072
  465SOL     OW 2835   4.689   4.852   3.815 -1.3279 -0.2750  1.1632
  465SOL    HW1 2836   4.658   4.815   3.732 -0.3773 -2.5230  1.7229
  465SOL    HW2 2837   4.706   4.775   3.870  3.7580  0.6851  1.4313
  466SOL     OW 2838   2.285   6.272   9.590  0.1670  0.0462  0.4897
  466SOL    HW1 2839   2.218   6.227   9.642 -0.1815 -0.8394 -0.7033
  466SOL    HW2 2840   2.275   6.237   9.502  1.0433  1.2071 -0.0962
  467SOL     OW 2841   7.758   4.137  10.281  0.3394 -0.4433  0.3834
  467SOL    HW1 2842   7.690   4.069  10.289 -0.2795  0.1522  0.2714
  467SOL    HW2 2843   7.795   4.144  10.369 -0.3936 -0.1177  0.6790
  468SOL     OW 2844   0.101   4.783   3.481  0.7093  0.2887 -0.0023
  468SOL    HW1 2845   0.143   4.855   3.529  0.4365 -0.1131  0.8541
  468SOL    HW2 2846   0.020   4.765   3.529  2.2291 -2.6930  1.7545
  469SOL     OW 2847   4.816   1.598   8.818  0.1139 -0.1140 -0.4639
  469SOL    HW1 2848   4.766   1.621   8.896  0.0644  0.0831 -0.5541
  469SOL    HW2 2849   4.765   1.633   8.745  0.3357  0.0009 -0.5623
  470SOL     OW 2850   6.392   4.289   5.704 -0.0241  0.0004  0.6002
  470SOL    HW1 2851   6.456   4.271   5.773  1.1559  1.1018 -0.1710
  470SOL    HW2 2852   6.415   4.229   5.634 -0.4209 -0.2407  0.6765
  471SOL     OW 2853   6.579   6.536  10.013 -0.1368 -1.2280  0.1555
  471SOL    HW1 2854   6.648   6.596   9.983 -0.3509 -1.2457 -0.3896
  471SOL    HW2 2855   6.498   6.585  10.000 -0.2123 -1.0720  1.1358
  472SOL     OW 2856   7.052   4.354   3.970 -0.4124  0.6483  0.1836
  472SOL    HW1 2857   7.054   4.443   4.006  0.6242  0.7514 -0.0828
  472SOL    HW2 2858   7.093   4.362   3.884 -0.5500 -0.0460  0.0487
  473SOL     OW 2859   4.867   2.020   2.460 -0.0600 -0.5369  0.4064
  473SOL    HW1 2860   4.799   2.087   2.457 -0.0894 -0.4847  1.6811
  473SOL    HW2 2861   4.826   1.943   2.421  0.3775  0.4649 -2.2799
  474SOL     OW 2862   4.508   1.477   6.392 -0.0093 -0.0056 -0.1261
  474SOL    HW1 2863   4.588   1.446   6.434  0.3236 -0.5648 -1.1363
  474SOL    HW2 2864   4.539   1.535   6.322 -0.4940 -0.0242 -0.3610
  475SOL     OW 2865   7.590   1.931   3.545  0.4979  0.2327  0.2722
  475SOL    HW1 2866   7.617   1.918   3.454 -0.5597  3.2997 -0.6437
  475SOL    HW2 2867   7.495   1.915   3.544  0.3451  1.0412  0.6030
  476SOL     OW 2868   6.052   4.347   4.556 -0.5761  0.3826  0.3622
  476SOL    HW1 2869   6.056   4.429   4.606 -0.4388 -0.3799  1.6457
  476SOL    HW2 2870   5.961   4.318   4.567 -0.8823  0.8211 -0.8795
  477SOL     OW 2871   2.994   0.652   2.581  0.0918 -0.1721 -0.2153
  477SOL    HW1 2872   3.019   0.743   2.566  0.5995 -0.2397  0.2145
  477SOL    HW2 2873   2.906   0.657   2.619  1.3403  0.3361  2.9000
  478SOL     OW 2874   6.076   1.236  11.377  0.1470 -0.1968 -0.7005
  478SOL    HW1 2875   6.010   1.238  11.447  0.7060  3.2040 -0.1044
  478SOL    HW2 2876   6.155   1.203  11.420  0.3551  1.4077  0.2200
  479SOL     OW 2877   4.001   7.551   0.815 -0.2353 -0.1939 -0.1552
  479SOL    HW1 2878   4.033   7.535   0.727  2.6855 -0.6654  0.8857
  479SOL    HW2 2879   3.936   7.621   0.805  1.5100  1.2329 -2.4624
  480SOL     OW 2880   4.276   2.163   1.137  0.3022  0.2630  0.8737
  480SOL    HW1 2881   4.265   2.097   1.206  2.1075 -0.6838  0.3153
  480SOL    HW2 2882   4.231   2.126   1.061  0.9743 -0.1606  0.6744
  481SOL     OW 2883   0.760   3.295   3.874 -0.4458  0.1087 -0.3722
  481SOL    HW1 2884   0.669   3.283   3.845 -0.7386 -1.6778  1.1085
  481SOL    HW2 2885   0.772   3.230   3.943  0.7590  2.9638  2.3315
  482SOL     OW 2886   2.593   4.544   3.147 -0.3882  0.1504 -0.1066
  482SOL    HW1 2887   2.688   4.541   3.136  0.0449  3.6452  1.1734
  482SOL    HW2 2888   2.576   4.495   3.228 -0.0899 -2.5827 -1.6165
  483SOL     OW 2889   7.707   5.557   2.984 -0.0759 -0.1807 -0.1505
  483SOL    HW1 2890   7.614   5.536   2.990 -0.6019  1.6950 -1.0150
  483SOL    HW2 2891   7.727   5.553   2.891  0.3382  0.8043 -0.1207
  484SOL     OW 2892   7.940   3.516   3.306 -0.0599  0.1103 -0.7575
  484SOL    HW1 2893   7.989   3.551   3.231  0.3384  2.1190  0.3586
  484SOL    HW2 2894   7.997   3.451   3.344  0.2617 -0.0431 -1.4759
  485SOL     OW 2895   5.692   7.252   7.254  0.2080  0.1627  0.1180
  485SOL    HW1 2896   5.630   7.306   7.302 -2.3148 -0.8974 -1.7454
  485SOL    HW2 2897   5.661   7.162   7.266  0.8691 -0.3257 -1.5183
  486SOL     OW 2898   6.244   3.389   8.124  0.6364  0.1423 -0.3551
  486SOL    HW1 2899   6.168   3.351   8.167  0.1452 -0.8841 -2.0389
  486SOL    HW2 2900   6.301   3.314   8.106  0.8786  0.5386 -1.3438
  487SOL     OW 2901   0.308   7.878   5.779 -0.2927  0.1515  0.2773
  487SOL    HW1 2902   0.361   7.859   5.702 -0.6744  0.0821  0.0249
  487SOL    HW2 2903   0.312   7.973   5.789  1.3108  0.0151  1.3155
  488SOL     OW 2904   2.258   0.406   6.102 -0.0551  0.1351 -0.2783
  488SOL    HW1 2905   2.171   0.408   6.141  0.0527  0.0256 -0.0328
  488SOL    HW2 2906   2.261   0.484   6.047  0.1608  0.8702  0.7442
  489SOL     OW 2907   2.491   6.018   0.236  0.0093 -0.3548 -0.2892
  489SOL    HW1 2908   2.542   5.947   0.274  0.8935  0.7994  0.7408
  489SOL    HW2 2909   2.413   5.974   0.200 -0.5207 -1.5963  2.1816
  490SOL     OW 2910   5.281   5.800   7.303  0.8257  0.2862  0.4677
  490SOL    HW1 2911   5.218   5.730   7.290  0.6217  0.5499  0.0312
  490SOL    HW2 2912   5.282   5.814   7.398 -0.2270  0.6986  0.4306
  491SOL     OW 2913   6.831   2.538   0.429  0.0893  0.0768 -0.0352
  491SOL    HW1 2914   6.854   2.629   0.411  0.3304 -0.1057 -0.7008
  491SOL    HW2 2915   6.832   2.531   0.524 -3.0215  1.5721  0.2511
  492SOL     OW 2916   3.171   6.471   7.050 -0.3289  0.1389 -0.2407
  492SOL    HW1 2917   3.081   6.502   7.045  0.1282  1.3972 -0.8591
  492SOL    HW2 2918   3.208   6.518   7.124 -0.1288 -0.2872 -0.0645
  493SOL     OW 2919   4.566   0.093   9.518 -0.5029 -0.2791 -0.2139
  493SOL    HW1 2920   4.610   0.013   9.547 -0.6131 -0.7775 -1.3649
  493SOL    HW2 2921   4.606   0.114   9.434 -0.4760  0.8914  0.0764
  494SOL     OW 2922   6.931   4.736   1.396  0.4485 -0.2527 -0.5072
  494SOL    HW1 2923   6.879   4.765   1.471  1.7789  0.7529  0.0760
  494SOL    HW2 2924   6.891   4.654   1.369 -1.0007  0.1452  0.3354
  495SOL     OW 2925   2.800   0.037   6.294  0.5435 -0.0291 -0.0656
  495SOL    HW1 2926   2.843   0.097   6.232 -0.6552  0.2526 -0.6586
  495SOL    HW2 2927   2.869  -0.022   6.322  1.1866  0.0073 -1.4797
  496SOL     OW 2928   1.904   5.333   9.419  0.1707 -0.2878 -0.0684
  496SOL    HW1 2929   1.995   5.302   9.414  0.4184  0.5221 -0.6966
  496SOL    HW2 2930   1.883   5.329   9.512 -0.0182 -2.8895 -0.1568
  497SOL     OW 2931   4.993   4.207   9.855  0.1043 -0.4364 -0.3958
  497SOL    HW1 2932   4.980   4.125   9.902  0.5067 -0.7980 -0.9030
  497SOL    HW2 2933   4.910   4.253   9.864  0.5443  0.0527  1.7074
  498SOL     OW 2934   4.818   0.157  12.382  0.2234  0.0645 -0.0567
  498SOL    HW1 2935   4.873   0.218  12.332 -0.5778  0.1805 -0.8206
  498SOL    HW2 2936   4.863   0.147  12.466  0.6733  1.2535 -0.1423
  499SOL     OW 2937   7.730   3.903  10.001  0.4841 -0.3303  0.0393
  499SOL    HW1 2938   7.701   3.817   9.969 -1.5741 -0.1378  1.2130
  499SOL    HW2 2939   7.776   3.883  10.083 -0.8243 -0.2606  0.8033
  500SOL     OW 2940   7.125   3.083   3.626 -0.0955  0.2286 -0.3657
  500SOL    HW1 2941   7.216   3.107   3.611  0.1410  1.1166  2.0558
  500SOL    HW2 2942   7.123   2.988   3.619  0.6814  0.2942 -1.8689
  501SOL     OW 2943   0.761   7.736  11.903 -0.4365  0.3694 -0.6873
  501SOL    HW1 2944   0.819   7.798  11.948  0.9646 -1.0953 -0.3547
  501SOL    HW2 2945   0.697   7.710  11.970  0.2344 -0.0637 -0.1959
  502SOL     OW 2946   6.340   1.303   2.457  0.0234  0.4189  0.0400
  502SOL    HW1 2947   6.275   1.253   2.506 -0.3428  0.4216 -0.4380
  502SOL    HW2 2948   6.307   1.393   2.458  0.2236  0.4919  0.1361
  503SOL     OW 2949   6.480   3.485   4.351 -0.4425  0.7325 -0.0965
  503SOL    HW1 2950   6.428   3.485   4.270  0.1180 -1.5930 -0.5345
  503SOL    HW2 2951   6.416   3.467   4.420 -0.3516 -1.8808 -0.6046
  504SOL     OW 2952   0.182   0.264   5.266  0.1239 -0.0712 -0.4421
  504SOL    HW1 2953   0.255   0.319   5.294 -0.1358  0.3670 -0.6075
  504SOL    HW2 2954   0.139   0.315   5.197  1.3872 -1.5553 -2.4383
  505SOL     OW 2955   6.674   2.317   4.933 -0.6381 -0.6716  0.4589
  505SOL    HW1 2956   6.762   2.284   4.917 -0.4162 -0.0644  0.4174
  505SOL    HW2 2957   6.633   2.318   4.846  0.7967  3.2867 -0.3618
  506SOL     OW 2958   2.313   3.579  12.015  0.1547 -0.0252  0.6747
  506SOL    HW1 2959   2.221   3.578  12.041 -0.0899  1.0430 -0.0695
  506SOL    HW2 2960   2.335   3.486  12.000 -0.9706 -0.2411  0.2793
  507SOL     OW 2961   3.001   2.578  12.370 -0.3342  0.5791  0.6920
  507SOL    HW1 2962   3.050   2.656  12.344 -0.2877  0.0412 -0.9465
  507SOL    HW2 2963   3.064   2.525  12.418  1.1140 -0.5790 -2.2495
  508SOL     OW 2964   1.405   7.146   6.614 -0.0218  0.4823 -0.0299
  508SOL    HW1 2965   1.491   7.186   6.624 -0.1143  0.2170  2.3536
  508SOL    HW2 2966   1.349   7.217   6.582  0.5032  1.4309  1.0944
  509SOL     OW 2967   7.233   6.356   0.846  0.2807  0.0458 -1.0039
  509SOL    HW1 2968   7.259   6.321   0.930 -0.2509  1.2422 -0.3104
  509SOL    HW2 2969   7.313   6.390   0.807  0.3139  0.7029 -0.3722
  510SOL     OW 2970   6.052   7.702   1.418 -0.0923 -0.0791 -0.1815
  510SOL    HW1 2971   6.046   7.699   1.514 -1.3531  0.3632 -0.2235
  510SOL    HW2 2972   6.069   7.611   1.393 -1.0734 -0.4504  0.4117
  511SOL     OW 2973   4.536   6.301   1.584  0.3405  0.2532 -0.0090
  511SOL    HW1 2974   4.441   6.309   1.588  0.4036  2.2925 -1.1213
  511SOL    HW2 2975   4.559   6.245   1.658 -1.6852 -0.0697  0.4346
  512SOL     OW 2976   1.641   3.936  11.510  0.1927  0.3105 -0.5522
  512SOL    HW1 2977   1.566   3.964  11.458 -1.5775  0.0001  1.7122
  512SOL    HW2 2978   1.665   3.851  11.473 -0.9852  0.1160 -0.9096
  513SOL     OW 2979   3.286   0.113   3.764 -0.0768  0.0030  0.3043
  513SOL    HW1 2980   3.350   0.047   3.739 -0.8442  0.2247 -2.5788
  513SOL    HW2 2981   3.339   0.189   3.788  0.7824 -0.4382 -0.1408
  514SOL     OW 2982   6.221   0.744   8.997 -0.6540 -0.1058  0.0319
  514SOL    HW1 2983   6.301   0.794   8.982  0.4302 -2.3406 -2.4262
  514SOL    HW2 2984   6.162   0.772   8.928 -0.8560 -0.6438 -0.0128
  515SOL     OW 2985   4.783   0.136   1.967 -0.0288  0.1343 -0.0951
  515SOL    HW1 2986   4.797   0.230   1.972  0.9569  0.0098 -0.1846
  515SOL    HW2 2987   4.861   0.098   2.007 -0.1065 -0.6423 -0.6477
  516SOL     OW 2988   1.990   7.641   5.165  0.4608 -0.0227  0.3991
  516SOL    HW1 2989   1.997   7.582   5.090 -0.1233  0.5407 -0.1063
  516SOL    HW2 2990   2.079   7.646   5.200  0.4886 -1.3295  0.5632
  517SOL     OW 2991   3.376   4.902   6.122  0.0284  0.1469 -0.3439
  517SOL    HW1 2992   3.367   4.995   6.144  0.1412  0.2118 -0.5661
  517SOL    HW2 2993   3.439   4.901   6.050  1.2434 -0.2360  0.6810
  518SOL     OW 2994   5.186   5.719  10.660 -0.4978 -0.2930 -0.1426
  518SOL    HW1 2995   5.251   5.659  10.622 -2.4078 -2.1543 -0.6887
  518SOL    HW2 2996   5.131   5.663  10.715 -0.5616  1.5542  1.8154
  519SOL     OW 2997   4.455   2.484   5.668 -0.1247 -0.4597 -0.6477
  519SOL    HW1 2998   4.472   2.533   5.588 -3.7554  1.2196 -0.5692
  519SOL    HW2 2999   4.413   2.403   5.638  0.8699 -1.0398 -0.5160
  520SOL     OW 3000   3.816   6.727   8.230  0.3122  0.6449 -0.6705
  520SOL    HW1 3001   3.762   6.784   8.174 -1.5246  1.7767  2.0445
  520SOL    HW2 3002   3.897   6.776   8.242  0.1221  1.0855 -1.1311
  521SOL     OW 3003   1.164   3.881  10.514  0.3553  0.7761 -0.3867
  521SOL    HW1 3004   1.120   3.797  10.499 -0.1972  0.7095  1.3686
  521SOL    HW2 3005   1.154   3.928  10.431 -1.0792 -0.1054 -0.7620
  522SOL     OW 3006   2.419   6.070   3.838  0.0760 -0.9095 -0.4096
  522SOL    HW1 3007   2.459   5.986   3.815  3.6384  0.7796 -1.0744
  522SOL    HW2 3008   2.468   6.135   3.788 -2.6641  1.6237 -0.0864
  523SOL     OW 3009   5.584   1.193   5.684 -0.7502  0.5801  0.1002
  523SOL    HW1 3010   5.494   1.182   5.651 -0.2552 -1.1811 -0.8184
  523SOL    HW2 3011   5.603   1.109   5.728  0.3280  1.0676  0.5950
  524SOL     OW 3012   2.860   4.777   7.491  0.3880 -0.4277  0.4131
  524SOL    HW1 3013   2.831   4.813   7.574  0.8527 -1.3724  1.0022
  524SOL    HW2 3014   2.855   4.682   7.502 -1.2118 -0.5959 -1.2438
  525SOL     OW 3015   3.176   5.237  11.801 -0.2466 -0.5902  0.0160
  525SOL    HW1 3016   3.250   5.205  11.749  0.3855 -0.2203  0.6559
  525SOL    HW2 3017   3.112   5.266  11.737  0.0629 -1.1401 -0.5583
  526SOL     OW 3018   7.329   2.940   0.008  0.4082  0.1867 -0.0510
  526SOL    HW1 3019   7.343   2.966  -0.083  0.9653 -1.1713 -0.3905
  526SOL    HW2 3020   7.409   2.966   0.054  0.8105 -0.5373 -0.3124
  527SOL     OW 3021   2.641   4.686   1.591 -0.1592 -0.1414  0.5294
  527SOL    HW1 3022   2.716   4.655   1.539 -1.6228 -1.8751 -0.6678
  527SOL    HW2 3023   2.600   4.606   1.624 -0.9618  0.8186  1.9707
  528SOL     OW 3024   0.605   7.497  12.057 -0.0806 -0.1477 -0.0111
  528SOL    HW1 3025   0.510   7.500  12.063 -0.0546  0.7101  0.1547
  528SOL    HW2 3026   0.623   7.437  11.985 -0.7696  0.3692 -0.6226
  529SOL     OW 3027   7.292   6.406  11.790  0.5041  0.7269  0.4129
  529SOL    HW1 3028   7.305   6.498  11.768  0.3183  0.5809 -0.3362
  529SOL    HW2 3029   7.228   6.375  11.726 -0.8603  0.5459  1.8182
  530SOL     OW 3030   5.539   6.669  10.643 -0.0334  0.0918  0.1644
  530SOL    HW1 3031   5.486   6.605  10.595 -1.7167  1.9428 -0.5813
  530SOL    HW2 3032   5.484   6.693  10.718  0.5673  0.6661  0.4274
  531SOL     OW 3033   2.273   4.649   7.032  0.1050  0.4664  0.4874
  531SOL    HW1 3034   2.331   4.725   7.025  0.3360  0.1472 -1.7844
  531SOL    HW2 3035   2.328   4.580   7.069 -0.2273  1.4197  3.0334
  532SOL     OW 3036   0.445   4.121   2.830 -0.2405  0.2899  0.0711
  532SOL    HW1 3037   0.506   4.104   2.902 -0.2006  0.1141 -0.0043
  532SOL    HW2 3038   0.384   4.048   2.833 -0.6147  0.6076  0.3180
  533SOL     OW 3039   3.296   1.205   4.635  0.2415  0.0917  0.0498
  533SOL    HW1 3040   3.234   1.217   4.707 -0.3362 -0.7164 -0.2970
  533SOL    HW2 3041   3.254   1.141   4.577  2.1692 -1.9004  0.7189
  534SOL     OW 3042   6.286   3.032  11.855  0.8676 -0.0505  0.4591
  534SOL    HW1 3043   6.357   3.015  11.917  1.1932 -0.1463  0.0636
  534SOL    HW2 3044   6.322   3.009  11.769  0.5138  0.3363  0.1976
  535SOL     OW 3045   2.071   6.305   2.092 -0.6953  0.1625 -0.9259
  535SOL    HW1 3046   2.152   6.261   2.118 -0.8273 -1.0924 -2.4797
  535SOL    HW2 3047   2.001   6.254   2.132 -0.7512  1.2586  0.4328
  536SOL     OW 3048   1.909   1.364   3.821 -0.0110 -0.5806  0.2326
  536SOL    HW1 3049   1.912   1.430   3.751  1.0327  0.2733  1.0528
  536SOL    HW2 3050   2.001   1.343   3.838 -0.1936 -0.1445  1.9225
  537SOL     OW 3051   3.434   6.095   5.380  0.4585 -0.8026  0.3477
  537SOL    HW1 3052   3.474   6.009   5.361  0.8560 -0.5611  0.0674
  537SOL    HW2 3053   3.386   6.117   5.300  0.4942 -0.6872  0.3582
  538SOL     OW 3054   7.664   0.376   9.443  0.5463 -0.0768  0.1567
  538SOL    HW1 3055   7.647   0.317   9.516  1.0083 -0.6999 -0.2322
  538SOL    HW2 3056   7.746   0.345   9.404  0.7221  0.7221 -0.1529
  539SOL     OW 3057   1.265   7.928   1.601  0.8924  0.5574  0.1593
  539SOL    HW1 3058   1.306   7.982   1.533  0.4760  0.0824 -0.4890
  539SOL    HW2 3059   1.316   7.847   1.602  0.4748  0.2854 -0.0874
  540SOL     OW 3060   6.662   6.750   1.765 -0.0089  0.0337 -0.4845
  540SOL    HW1 3061   6.709   6.759   1.848 -1.6011  0.6069  0.3879
  540SOL    HW2 3062   6.701   6.817   1.708 -0.1389  0.8762  0.4010
  541SOL     OW 3063   4.098   2.543   7.917  0.2960 -0.3585  0.0822
  541SOL    HW1 3064   4.163   2.474   7.908  0.3274 -0.2017 -0.9310
  541SOL    HW2 3065   4.145   2.616   7.957  0.9764  0.0599 -1.4328
  542SOL     OW 3066   7.861   4.053  10.549  0.1819 -0.4667  0.0890
  542SOL    HW1 3067   7.847   3.992  10.623 -0.4001  0.8050  1.0652
  542SOL    HW2 3068   7.952   4.040  10.525  0.3544 -1.0024  0.9663
  543SOL     OW 3069   6.178   7.230  11.805 -0.3755 -0.4516  0.0154
  543SOL    HW1 3070   6.226   7.149  11.825  0.0398 -0.6701 -1.7529
  543SOL    HW2 3071   6.087   7.201  11.796 -0.4766 -0.4456  0.9193
  544SOL     OW 3072   5.949   1.781   1.106 -0.2444  0.2946 -0.0020
  544SOL    HW1 3073   5.920   1.690   1.101  0.9669 -0.1628  0.8327
  544SOL    HW2 3074   5.987   1.789   1.194  1.0214  1.1830 -0.6136
  545SOL     OW 3075   6.458   0.896   8.924  0.0030 -0.1252 -0.5977
  545SOL    HW1 3076   6.520   0.895   8.996  0.4922  0.0472 -1.0124
  545SOL    HW2 3077   6.512   0.891   8.845 -0.2671  2.9166 -1.1199
  546SOL     OW 3078   0.803   1.341   6.199 -0.2581 -0.2282 -0.0436
  546SOL    HW1 3079   0.847   1.322   6.116 -0.8779  2.8086 -1.1906
  546SOL    HW2 3080   0.872   1.336   6.265  1.5459  2.5110 -1.5340
  547SOL     OW 3081   0.366   0.739   4.319  0.1329 -0.1331 -0.0127
  547SOL    HW1 3082   0.459   0.715   4.315  0.7926  1.9195  1.2845
  547SOL    HW2 3083   0.347   0.744   4.413 -1.0053  0.4036 -0.2596
  548SOL     OW 3084   7.647   7.262   2.466  0.1148 -0.0420 -0.5129
  548SOL    HW1 3085   7.589   7.311   2.408  1.2874  1.0384 -0.8132
  548SOL    HW2 3086   7.659   7.319   2.542  1.5587  0.2126 -0.9004
  549SOL     OW 3087   1.307   1.295   8.614 -0.1785 -0.2237 -0.0234
  549SOL    HW1 3088   1.227   1.278   8.564 -0.3653 -0.9424  0.4980
  549SOL    HW2 3089   1.341   1.208   8.636  0.2987  0.0773  0.4640
  550SOL     OW 3090   4.843   1.833   1.897  0.7291 -0.4345  0.3341
  550SOL    HW1 3091   4.782   1.775   1.944 -0.0863  0.4432  0.3975
  550SOL    HW2 3092   4.819   1.921   1.926  0.2927  0.1350 -1.6005
  551SOL     OW 3093   6.267   6.147  10.392  0.2185 -0.2224 -0.0059
  551SOL    HW1 3094   6.198   6.087  10.422  2.7000 -3.2525  0.1709
  551SOL    HW2 3095   6.254   6.152  10.298 -0.9434  0.2628  0.1594
  552SOL     OW 3096   2.202   6.522   8.926 -0.1299  0.2277  0.3040
  552SOL    HW1 3097   2.208   6.434   8.964 -0.8319  0.3995  0.8466
  552SOL    HW2 3098   2.216   6.581   8.999  2.0498  0.6022 -0.3627
  553SOL     OW 3099   2.509   0.180   0.634  1.0432 -0.2513  0.1212
  553SOL    HW1 3100   2.547   0.253   0.681  3.8598 -1.5407  0.0652
  553SOL    HW2 3101   2.542   0.189   0.545 -0.3171 -0.4839 -0.4440
  554SOL     OW 3102   6.151   0.993   2.701 -0.2754  0.1794  0.3918
  554SOL    HW1 3103   6.123   1.084   2.690  1.3576  0.6160 -0.3677
  554SOL    HW2 3104   6.117   0.949   2.624  1.6113  0.8495 -0.8714
  555SOL     OW 3105   2.649   0.487   4.962  0.2534 -0.4715 -0.0868
  555SOL    HW1 3106   2.610   0.557   5.015 -0.1288  0.2119 -1.2424
  555SOL    HW2 3107   2.692   0.532   4.890 -0.0882 -1.4269 -0.9153
  556SOL     OW 3108   4.831   0.292   7.289 -0.4347 -0.1002  0.2166
  556SOL    HW1 3109   4.787   0.215   7.254 -1.0149  0.1861  0.3052
  556SOL    HW2 3110   4.856   0.267   7.378 -1.7720  0.2409  0.7072
  557SOL     OW 3111   0.520   6.967  10.537 -0.7639  0.3280  0.1646
  557SOL    HW1 3112   0.531   6.890  10.593 -1.7983  0.4862  0.5988
  557SOL    HW2 3113   0.445   7.014  10.574 -1.2294  0.6421 -1.1152
  558SOL     OW 3114   2.780   1.513   0.877  0.2861 -0.6150  0.1544
  558SOL    HW1 3115   2.839   1.585   0.897  2.8457 -2.2974 -0.9269
  558SOL    HW2 3116   2.794   1.450   0.948  0.4055 -1.3782 -0.5387
  559SOL     OW 3117   5.509   4.532   6.511 -0.0857 -0.0302 -0.3365
  559SOL    HW1 3118   5.598   4.562   6.491  0.0834 -0.8110 -0.7717
  559SOL    HW2 3119   5.483   4.482   6.435 -0.1231 -1.5339  0.6211
  560SOL     OW 3120   6.855   4.964   3.768 -0.2082  0.4522  0.3004
  560SOL    HW1 3121   6.822   5.005   3.689  0.1302  1.9688  0.9075
  560SOL    HW2 3122   6.944   4.999   3.779 -0.3697  0.5526  1.5176
  561SOL     OW 3123   4.110   2.795   5.586  0.2214 -0.1069 -0.0604
  561SOL    HW1 3124   4.023   2.832   5.598  0.0854 -0.8479  1.5698
  561SOL    HW2 3125   4.137   2.768   5.674  1.0671 -2.1773 -0.8806
  562SOL     OW 3126   5.764   4.121   6.207  0.0026  0.0615 -0.0651
  562SOL    HW1 3127   5.803   4.192   6.156 -0.8444  1.8260  1.6284
  562SOL    HW2 3128   5.828   4.049   6.200  1.8675  1.6498 -0.2146
  563SOL     OW 3129   5.949   1.192   5.905 -0.0137 -0.2231  0.1024
  563SOL    HW1 3130   6.025   1.233   5.865  1.1701 -1.1846  1.2660
  563SOL    HW2 3131   5.977   1.173   5.995 -1.0810 -2.0086  0.1035
  564SOL     OW 3132   4.852   2.809   5.359 -0.1802 -0.1584 -0.2892
  564SOL    HW1 3133   4.869   2.761   5.440  1.1218  1.1627  0.2775
  564SOL    HW2 3134   4.800   2.885   5.387 -0.6398 -0.2574 -0.8609
  565SOL     OW 3135   7.739   7.876   8.651 -0.3191 -0.0547 -0.5115
  565SOL    HW1 3136   7.752   7.953   8.706 -1.1447  0.6083 -1.2021
  565SOL    HW2 3137   7.705   7.809   8.710 -2.3314  1.0015 -0.3701
  566SOL     OW 3138   1.328   4.542  11.271 -0.0398  0.3318  0.2299
  566SOL    HW1 3139   1.369   4.491  11.202 -1.4928  0.6258 -0.8844
  566SOL    HW2 3140   1.264   4.483  11.311  0.0996  0.4799  0.6883
  567SOL     OW 3141   5.473   5.524   3.311  0.8378  0.3260  0.1255
  567SOL    HW1 3142   5.413   5.588   3.274 -0.3410 -0.7112  0.1559
  567SOL    HW2 3143   5.470   5.539   3.406 -0.4169 -0.5392  0.2544
  568SOL     OW 3144   4.248   5.070  11.617  0.0463  0.1749  0.1802
  568SOL    HW1 3145   4.251   4.992  11.562 -0.2588 -0.2051  0.6961
  568SOL    HW2 3146   4.281   5.041  11.702 -0.1534  0.5844  0.4018
  569SOL     OW 3147   1.337   0.664   9.681  0.0708 -0.4487 -0.3245
  569SOL    HW1 3148   1.331   0.585   9.626  0.3251  1.2510 -3.0187
  569SOL    HW2 3149   1.263   0.718   9.652 -2.4634 -1.0768  4.1466
  570SOL     OW 3150   7.315   3.696   1.655  0.2785  0.4982  0.1417
  570SOL    HW1 3151   7.273   3.622   1.699 -0.7659  1.6560  1.1672
  570SOL    HW2 3152   7.395   3.660   1.618 -1.0750 -1.5593 -0.9680
  571SOL     OW 3153   7.408   0.035   9.469 -0.1476  0.4473 -0.5446
  571SOL    HW1 3154   7.448  -0.016   9.540 -1.0317  0.9887  0.3745
  571SOL    HW2 3155   7.380  -0.030   9.406 -0.5865 -0.1640  0.2573
  572SOL     OW 3156   5.235   1.318   0.304  0.2724 -0.3753 -0.4948
  572SOL    HW1 3157   5.164   1.336   0.242 -0.5144 -0.3914  0.3618
  572SOL    HW2 3158   5.251   1.224   0.296 -0.5214 -0.5683  0.0112
  573SOL     OW 3159   4.196   2.808   4.580  0.1045  0.4624 -0.2679
  573SOL    HW1 3160   4.239   2.731   4.617  3.4030  0.7582 -2.9931
  573SOL    HW2 3161   4.193   2.791   4.486 -1.3759  2.6386 -0.6926
  574SOL     OW 3162   5.608   5.268   0.547  0.0582 -0.5295  0.1166
  574SOL    HW1 3163   5.527   5.307   0.581  0.0068  2.2939 -2.7511
  574SOL    HW2 3164   5.582   5.230   0.463  1.2227 -2.0728  0.4272
  575SOL     OW 3165   0.487   7.897   5.561 -0.4213  1.0574  0.2921
  575SOL    HW1 3166   0.416   7.952   5.526  0.1291  1.7482  0.2440
  575SOL    HW2 3167   0.533   7.865   5.483 -0.9807  0.1835  0.3038
  576SOL     OW 3168   5.199   5.420   7.078  0.3244 -0.2845 -0.4470
  576SOL    HW1 3169   5.169   5.461   7.159  0.3333  2.5800 -1.7718
  576SOL    HW2 3170   5.146   5.460   7.010  0.1744 -2.7731 -1.9119
  577SOL     OW 3171   0.506   6.925   2.845 -0.1648  0.2601  0.0083
  577SOL    HW1 3172   0.422   6.933   2.890 -1.3482 -2.2214 -1.5523
  577SOL    HW2 3173   0.553   7.005   2.867 -2.7900  1.5778  1.2163
  578SOL     OW 3174   0.137   5.410   2.979  0.3472 -0.7486  0.4895
  578SOL    HW1 3175   0.203   5.425   3.047  2.3281 -1.2226 -1.2389
  578SOL    HW2 3176   0.099   5.496   2.963  0.8495 -0.3787  1.2047
  579SOL     OW 3177   1.270   5.955   0.517 -0.0739 -0.3064  0.4406
  579SOL    HW1 3178   1.299   5.911   0.598  0.4036 -0.1387  0.3623
  579SOL    HW2 3179   1.197   6.010   0.545 -1.1636 -1.6774  0.4204
  580SOL     OW 3180   5.117   3.410  12.129  0.3102  0.6634  0.0932
  580SOL    HW1 3181   5.107   3.376  12.218  0.4674  0.9600  0.2261
  580SOL    HW2 3182   5.208   3.393  12.107  0.1364  0.1194 -0.2100
  581SOL     OW 3183   7.161   5.603   0.857 -0.2022  0.0405  0.4498
  581SOL    HW1 3184   7.169   5.527   0.914 -1.1974  0.1442  0.7475
  581SOL    HW2 3185   7.222   5.586   0.785  1.0794 -0.0911  1.5370
  582SOL     OW 3186   7.899   6.635   5.842 -0.0365  0.3821  0.1945
  582SOL    HW1 3187   7.809   6.666   5.853 -0.2924 -0.3334  0.1699
  582SOL    HW2 3188   7.952   6.695   5.894 -0.7700 -0.4917  2.0195
  583SOL     OW 3189   4.801   2.086   7.460 -0.2580 -0.0303  0.2009
  583SOL    HW1 3190   4.835   2.083   7.550  0.3594 -1.2461 -0.0608
  583SOL    HW2 3191   4.870   2.048   7.407 -0.6432  0.6408 -0.7994
  584SOL     OW 3192   4.329   4.821   7.995  0.3014 -0.2621 -0.0233
  584SOL    HW1 3193   4.377   4.870   8.062  0.0668 -1.3058  0.9291
  584SOL    HW2 3194   4.266   4.769   8.043 -1.4047  0.5920 -1.2173
  585SOL     OW 3195   2.090   2.802   8.878  0.2243 -0.1271 -0.1326
  585SOL    HW1 3196   2.150   2.815   8.804  2.1762 -1.2843  1.1612
  585SOL    HW2 3197   2.127   2.855   8.949  0.0141 -1.2198  0.8350
  586SOL     OW 3198   5.888   1.552  10.472  0.4085 -0.3088  0.2938
  586SOL    HW1 3199   5.852   1.516  10.553  1.1451 -0.2597  0.6515
  586SOL    HW2 3200   5.880   1.480  10.408  1.0696 -0.8170  0.7698
  587SOL     OW 3201   7.140   0.690  10.467  0.3702 -0.2151  0.1272
  587SOL    HW1 3202   7.049   0.686  10.437  0.6717  0.3062 -0.9092
  587SOL    HW2 3203   7.137   0.750  10.543 -0.0513  0.3358 -0.3109
  588SOL     OW 3204   4.309   7.877   4.033 -0.1323  0.3979 -0.0695
  588SOL    HW1 3205   4.289   7.901   3.943 -3.2952 -1.5658 -0.0890
  588SOL    HW2 3206   4.374   7.807   4.026  0.4731  1.0197 -0.7286
  589SOL     OW 3207   6.937   2.065   7.297 -0.2288 -0.1388 -0.2231
  589SOL    HW1 3208   6.880   1.990   7.280 -0.1900 -1.0069  2.8344
  589SOL    HW2 3209   6.890   2.140   7.260 -2.0298 -1.1850 -0.1702
  590SOL     OW 3210   1.354   4.834  11.603  0.0811 -0.1789  0.2469
  590SOL    HW1 3211   1.336   4.743  11.583  1.3356 -0.3014 -0.4077
  590SOL    HW2 3212   1.283   4.882  11.560 -1.5425 -0.8929  1.9729
  591SOL     OW 3213   0.137   0.459   3.976 -0.6603  0.3325  0.1944
  591SOL    HW1 3214   0.159   0.454   3.883 -0.3788 -0.4696  0.2973
  591SOL    HW2 3215   0.173   0.543   4.005  1.3616 -0.4500  0.1036
  592SOL     OW 3216   5.406   7.738  12.163 -0.0713  0.1870 -0.2413
  592SOL    HW1 3217   5.413   7.657  12.212 -1.9995 -0.5399 -1.0791
  592SOL    HW2 3218   5.461   7.724  12.086 -0.4524 -0.3549 -0.4184
  593SOL     OW 3219   2.803   0.790  11.335  0.3618  0.2440 -0.4155
  593SOL    HW1 3220   2.808   0.884  11.318  2.7390  0.2781  0.1921
  593SOL    HW2 3221   2.847   0.778  11.419 -0.6245 -1.3336 -0.0830
  594SOL     OW 3222   3.678   7.926   1.536 -0.3674  0.2306  0.0001
  594SOL    HW1 3223   3.684   7.857   1.602 -1.2174  0.1099 -0.0396
  594SOL    HW2 3224   3.766   7.930   1.497 -0.1926 -0.5192  0.3071
  595SOL     OW 3225   3.238   7.958   1.927 -0.3417  0.2738 -0.1575
  595SOL    HW1 3226   3.175   8.029   1.939 -0.6956 -0.2117  0.9535
  595SOL    HW2 3227   3.323   8.001   1.925 -0.5335  0.7155  0.8080
  596SOL     OW 3228   0.420   6.666   4.977 -0.1600 -0.0692 -0.0293
  596SOL    HW1 3229   0.433   6.664   5.072 -2.6063 -0.8070  0.3647
  596SOL    HW2 3230   0.455   6.751   4.950  1.1411 -0.0979  1.3967
  597SOL     OW 3231   6.344   1.786   6.677  0.0778 -0.4480  0.1169
  597SOL    HW1 3232   6.413   1.789   6.611 -1.9087 -0.9929 -2.1190
  597SOL    HW2 3233   6.316   1.694   6.679 -2.0112  0.1205 -0.6570
  598SOL     OW 3234   3.906   0.030   9.123 -0.8956 -0.3110 -0.0427
  598SOL    HW1 3235   3.994   0.036   9.160 -0.7458 -0.7665 -0.3114
  598SOL    HW2 3236   3.901  -0.059   9.088 -1.2767 -0.1165 -0.4960
  599SOL     OW 3237   4.170   6.656   0.752 -0.3595 -0.1248 -0.4542
  599SOL    HW1 3238   4.091   6.602   0.759 -1.3160  1.1626 -0.8802
  599SOL    HW2 3239   4.210   6.628   0.669 -0.4134 -0.7082 -0.2909
  600SOL     OW 3240   1.027   3.957  11.023  0.7011 -0.6105  0.0981
  600SOL    HW1 3241   1.035   3.991  10.934  3.3566 -0.2083  0.4065
  600SOL    HW2 3242   0.949   4.002  11.058  1.3134  1.5312 -1.0683
  601SOL     OW 3243   4.447   3.632   0.604  0.2759 -0.2424  0.2893
  601SOL    HW1 3244   4.439   3.719   0.643 -1.5045 -0.0043 -0.5249
  601SOL    HW2 3245   4.528   3.636   0.553  0.6880  0.6341  0.9905
  602SOL     OW 3246   3.560   5.088   3.359 -0.2454 -0.2968  0.2649
  602SOL    HW1 3247   3.617   5.012   3.348 -1.4352 -1.1775  0.0266
  602SOL    HW2 3248   3.545   5.119   3.269  2.8669  2.3139  0.4397
  603SOL     OW 3249   5.932   1.781  10.387 -0.3280  0.0586 -0.1456
  603SOL    HW1 3250   5.851   1.801  10.340 -0.0972  0.4291 -0.3871
  603SOL    HW2 3251   5.913   1.700  10.434  0.0518 -1.4149 -2.4015
  604SOL     OW 3252   6.733   4.599   6.634  0.3296 -0.3009  0.1103
  604SOL    HW1 3253   6.687   4.632   6.557 -0.8648 -1.7835  0.1424
  604SOL    HW2 3254   6.696   4.649   6.707  1.8584  1.4984 -0.2792
  605SOL     OW 3255   0.168   4.782   8.484 -0.0078 -0.1252  0.3654
  605SOL    HW1 3256   0.196   4.710   8.427 -0.0297 -1.5848  2.1088
  605SOL    HW2 3257   0.191   4.861   8.435 -1.7440 -1.2350 -2.4770
  606SOL     OW 3258   4.702   3.397   7.572  0.5785 -0.2791 -1.3353
  606SOL    HW1 3259   4.690   3.408   7.667  5.5346 -0.1101 -0.4431
  606SOL    HW2 3260   4.705   3.302   7.559 -0.4479 -0.3076 -1.4232
  607SOL     OW 3261   3.199   4.246   3.592  0.8382 -0.1128  0.8298
  607SOL    HW1 3262   3.135   4.183   3.561 -0.1094  0.2311  1.9952
  607SOL    HW2 3263   3.283   4.201   3.584  0.2735 -1.1911  0.8326
  608SOL     OW 3264   7.931   0.968   1.327 -0.3416 -0.2573  0.3427
  608SOL    HW1 3265   7.878   0.890   1.343 -0.3900 -0.4542 -0.7063
  608SOL    HW2 3266   7.989   0.974   1.403 -0.4476 -1.2220  0.5090
  609SOL     OW 3267   3.996   2.579   4.906 -0.1455 -0.2193 -0.7238
  609SOL    HW1 3268   4.012   2.568   4.812 -1.4660  1.0742 -1.1348
  609SOL    HW2 3269   3.970   2.492   4.936  0.7738 -0.7628 -1.4411
  610SOL     OW 3270   5.176   4.672   0.077  0.1649 -0.2067 -0.1117
  610SOL    HW1 3271   5.093   4.712   0.101 -0.3275 -1.5529  0.5682
  610SOL    HW2 3272   5.243   4.733   0.107 -0.5544  0.2406  0.5985
  611SOL     OW 3273   0.581   0.157  10.908 -0.2643 -0.1857  0.3956
  611SOL    HW1 3274   0.529   0.237  10.901  0.4667  0.2509 -0.1764
  611SOL    HW2 3275   0.650   0.168  10.843  0.4741 -0.8036  1.0577
  612SOL     OW 3276   5.303   5.680   3.123  0.4613 -0.2090  0.4496
  612SOL    HW1 3277   5.237   5.744   3.149  0.2214 -0.7583  1.2496
  612SOL    HW2 3278   5.254   5.613   3.075  0.7199  0.2312 -0.4347
  613SOL     OW 3279   6.911   7.673   9.279  0.1965  0.3685 -0.4886
  613SOL    HW1 3280   6.871   7.760   9.278  1.9440  1.2346 -0.1297
  613SOL    HW2 3281   7.005   7.690   9.272  0.7455 -1.3697  1.5586
  614SOL     OW 3282   4.106   5.841   9.005 -0.4177 -0.2231  0.0850
  614SOL    HW1 3283   4.083   5.810   8.918  0.0534  1.2032 -0.5733
  614SOL    HW2 3284   4.065   5.928   9.012  1.1988  0.5500  0.4954
  615SOL     OW 3285   4.416   0.568  10.706 -0.0927  0.1981 -0.2439
  615SOL    HW1 3286   4.371   0.602  10.784 -0.1932  2.0787 -1.0546
  615SOL    HW2 3287   4.490   0.628  10.693  1.8677 -2.0096  0.2330
  616SOL     OW 3288   0.107   1.718   0.638 -0.3233 -0.3414  0.3747
  616SOL    HW1 3289   0.197   1.687   0.633  0.3533  1.6243 -0.8652
  616SOL    HW2 3290   0.077   1.724   0.548 -0.7043  1.5878  0.5701
  617SOL     OW 3291   2.996   5.783   1.698 -0.0054  0.1134  0.2339
  617SOL    HW1 3292   3.025   5.728   1.771 -1.3697  0.9614  1.4826
  617SOL    HW2 3293   2.984   5.870   1.737 -1.9125  0.3223 -0.6891
  618SOL     OW 3294   6.851   4.604   2.113 -0.5329  0.4544  0.1967
  618SOL    HW1 3295   6.797   4.550   2.056 -0.9447 -0.1969  1.1919
  618SOL    HW2 3296   6.842   4.565   2.200  0.5747  1.0604  0.6063
  619SOL     OW 3297   2.478   2.777  12.327  0.3255 -0.0184 -0.5439
  619SOL    HW1 3298   2.450   2.706  12.384  1.2568  0.2622  0.2838
  619SOL    HW2 3299   2.397   2.827  12.311  0.0420 -0.0968  0.5442
  620SOL     OW 3300   5.560   1.601   0.295 -0.3466  0.7214  0.0826
  620SOL    HW1 3301   5.497   1.575   0.363 -0.6751  2.1114  0.3472
  620SOL    HW2 3302   5.549   1.535   0.226  1.6830 -2.1662  2.2676
  621SOL     OW 3303   6.384   1.510  12.069  0.5412  0.4361 -0.0980
  621SOL    HW1 3304   6.452   1.549  12.123 -0.0117 -0.4539  1.3039
  621SOL    HW2 3305   6.429   1.444  12.017  0.8773  0.3588  0.2832
  622SOL     OW 3306   6.737   3.440   9.363 -0.1692  0.2947 -0.3136
  622SOL    HW1 3307   6.644   3.420   9.373  0.0894  0.3571  3.3589
  622SOL    HW2 3308   6.773   3.363   9.319 -2.0397  0.7879 -2.9664
  623SOL     OW 3309   2.761   1.002   3.074  0.5984 -0.1278 -0.0214
  623SOL    HW1 3310   2.762   0.944   3.151  2.3114  0.8509  0.7442
  623SOL    HW2 3311   2.817   0.958   3.010 -0.1499 -0.5298 -0.4129
  624SOL     OW 3312   6.871   3.425   6.108 -0.8712  0.0184 -0.3012
  624SOL    HW1 3313   6.924   3.436   6.029 -1.0408  0.7926 -0.3083
  624SOL    HW2 3314   6.824   3.508   6.118 -2.3160 -0.7443 -0.4663
  625SOL     OW 3315   3.828   2.234   1.023 -0.2601  0.0048 -0.2107
  625SOL    HW1 3316   3.752   2.204   0.973 -0.8450  0.4857  0.3842
  625SOL    HW2 3317   3.873   2.153   1.048  0.1930 -0.2397 -1.7220
  626SOL     OW 3318   0.836   7.339   4.341  0.3295  0.4065 -0.2808
  626SOL    HW1 3319   0.802   7.401   4.276  1.7092  0.1765 -1.2648
  626SOL    HW2 3320   0.879   7.394   4.406  0.5275  0.5571 -0.5351
  627SOL     OW 3321   5.469   0.092   2.041  0.4196 -0.0617 -0.0394
  627SOL    HW1 3322   5.444   0.095   1.948 -0.6320  1.2597  0.2468
  627SOL    HW2 3323   5.406   0.032   2.081 -1.6396  2.2719  0.4469
  628SOL     OW 3324   1.809   6.662   3.409  0.1728  0.1120 -0.2370
  628SOL    HW1 3325   1.723   6.661   3.452  1.1405 -0.3868  1.7785
  628SOL    HW2 3326   1.859   6.593   3.452  2.3161  1.8385  0.2482
  629SOL     OW 3327   4.458   1.111   5.026 -0.1315 -0.5064  0.2679
  629SOL    HW1 3328   4.452   1.082   5.117  1.4517 -0.9478  0.2574
  629SOL    HW2 3329   4.421   1.039   4.975  0.1615 -0.8018  0.4765
  630SOL     OW 3330   2.769   4.196   4.653  0.2693  0.0027 -0.0749
  630SOL    HW1 3331   2.827   4.271   4.637  1.3466 -0.9849 -0.9567
  630SOL    HW2 3332   2.776   4.143   4.574 -0.7064 -0.8960  0.4194
  631SOL     OW 3333   2.392   6.657   6.792 -0.2909  0.4720 -0.1251
  631SOL    HW1 3334   2.471   6.608   6.814 -0.7142 -0.0184  0.3357
  631SOL    HW2 3335   2.350   6.605   6.724  0.0364  0.9989 -0.7412
  632SOL     OW 3336   6.709   0.083  11.144  0.3013 -0.1880 -0.2399
  632SOL    HW1 3337   6.690   0.088  11.051 -1.1055 -1.1741 -0.0415
  632SOL    HW2 3338   6.662   0.005  11.174  3.1705 -1.6580  0.7435
  633SOL     OW 3339   1.962   4.021   9.783  0.4926 -0.0056  0.6365
  633SOL    HW1 3340   2.055   4.031   9.763  0.3336 -0.2318 -0.2899
  633SOL    HW2 3341   1.959   3.962   9.858  1.1182  0.5621  1.1167
  634SOL     OW 3342   4.255   7.868  12.004 -0.8937  0.4270 -0.0785
  634SOL    HW1 3343   4.267   7.917  11.923 -0.6740  0.2490 -0.1511
  634SOL    HW2 3344   4.334   7.886  12.055 -0.2950 -0.7624 -0.5686
  635SOL     OW 3345   7.900   0.700   6.491 -0.1029 -0.0163 -0.4260
  635SOL    HW1 3346   7.836   0.762   6.457 -0.3552  0.9645  1.6407
  635SOL    HW2 3347   7.980   0.716   6.441  0.0398  2.5031  0.4626
  636SOL     OW 3348   3.633   2.064   5.449 -0.3623  0.5133  0.2796
  636SOL    HW1 3349   3.571   2.131   5.478 -0.6676 -0.5405  2.2102
  636SOL    HW2 3350   3.586   1.982   5.462  1.0187 -0.2357  0.6571
  637SOL     OW 3351   1.537   5.161   9.963 -0.1681 -0.1522 -0.3872
  637SOL    HW1 3352   1.518   5.186   9.872  1.5552  0.5863 -0.5783
  637SOL    HW2 3353   1.482   5.218  10.016  0.4837  1.0321 -0.9420
  638SOL     OW 3354   6.840   6.144  11.165 -0.5415  0.7337 -0.2168
  638SOL    HW1 3355   6.874   6.071  11.216 -0.1690  1.5194  0.6859
  638SOL    HW2 3356   6.843   6.113  11.074 -1.4426 -0.7761  0.2336
  639SOL     OW 3357   4.488   0.114   0.669  0.2569  0.4561  0.4121
  639SOL    HW1 3358   4.413   0.073   0.713 -0.0412  0.5563  0.0031
  639SOL    HW2 3359   4.510   0.054   0.598  1.9525 -0.6934  1.7950
  640SOL     OW 3360   7.180   3.935   2.032 -0.6087  0.4727 -0.2255
  640SOL    HW1 3361   7.217   3.847   2.025 -4.0477 -1.2424  0.7642
  640SOL    HW2 3362   7.251   3.987   2.070  1.9762 -1.4715 -1.9669
  641SOL     OW 3363   7.005   3.583   0.956 -0.3845 -0.0398  0.3299
  641SOL    HW1 3364   6.951   3.591   0.878 -2.2930 -3.4496  1.0972
  641SOL    HW2 3365   6.954   3.624   1.025 -0.3561 -0.1682  0.4273
  642SOL     OW 3366   7.613   5.529   0.611 -0.4288  0.1384  0.4455
  642SOL    HW1 3367   7.637   5.603   0.555 -0.4431 -0.2684 -0.1056
  642SOL    HW2 3368   7.683   5.466   0.598 -1.1762 -0.5646 -0.2558
  643SOL     OW 3369   3.189   3.868   3.509  0.0582 -0.2326 -0.2540
  643SOL    HW1 3370   3.235   3.811   3.571  1.8494  1.0471 -0.3257
  643SOL    HW2 3371   3.252   3.882   3.438 -0.2190  1.9649 -0.1457
  644SOL     OW 3372   7.773   5.781   3.971 -0.3987 -0.3608 -0.0661
  644SOL    HW1 3373   7.724   5.706   4.007  0.7802 -1.1135  0.0157
  644SOL    HW2 3374   7.853   5.742   3.936 -0.8601  0.5186 -2.2712
  645SOL     OW 3375   1.008   2.976  10.197 -0.0215 -0.4304  0.0272
  645SOL    HW1 3376   0.950   2.923  10.252  0.7241 -0.0694  1.1867
  645SOL    HW2 3377   1.076   2.915  10.169 -0.4012 -0.6142 -0.5132
  646SOL     OW 3378   1.189   3.055   9.250 -0.2217 -0.1187  0.9370
  646SOL    HW1 3379   1.201   3.148   9.231  0.9704  0.5053  4.1026
  646SOL    HW2 3380   1.221   3.010   9.172 -0.7892  2.0778 -0.6637
  647SOL     OW 3381   0.952   4.626   9.691  0.7840  0.1508  0.0872
  647SOL    HW1 3382   1.011   4.689   9.648 -0.0508  1.4558  0.7801
  647SOL    HW2 3383   0.937   4.663   9.778  1.0848 -1.5647  0.9040
  648SOL     OW 3384   1.149   7.075   7.387  0.2721  0.2828 -0.1040
  648SOL    HW1 3385   1.112   7.033   7.465  2.2277 -2.4815 -0.5177
  648SOL    HW2 3386   1.077   7.078   7.324 -0.3357 -1.2064  0.4694
  649SOL     OW 3387   2.608   6.934   9.862  0.7061 -0.3515  0.2577
  649SOL    HW1 3388   2.620   6.850   9.906  0.6193 -0.1690  0.6318
  649SOL    HW2 3389   2.557   6.987   9.924 -0.1180 -0.3656 -0.3876
  650SOL     OW 3390   0.340   2.466   5.110  0.3138  0.1452 -0.4298
  650SOL    HW1 3391   0.329   2.444   5.017  2.2772  1.3354 -1.0003
  650SOL    HW2 3392   0.335   2.381   5.155 -1.5950 -0.3572 -1.4833
  651SOL     OW 3393   5.176   2.869   4.733  0.2025 -0.7674  0.1718
  651SOL    HW1 3394   5.151   2.872   4.640  2.8142 -1.3859 -0.6557
  651SOL    HW2 3395   5.138   2.948   4.771  0.6574  0.5449 -1.8983
  652SOL     OW 3396   1.662   1.626   2.503 -0.1484 -0.2100  0.5378
  652SOL    HW1 3397   1.696   1.536   2.504  2.5657  0.7390  0.2714
  652SOL    HW2 3398   1.674   1.657   2.592  0.5690  0.4554  0.2112
  653SOL     OW 3399   6.663   4.819   3.553 -0.1319  0.1837 -0.3284
  653SOL    HW1 3400   6.702   4.907   3.551  0.6813 -0.0739  1.8179
  653SOL    HW2 3401   6.737   4.759   3.555 -0.6450 -0.4510  0.5148
  654SOL     OW 3402   5.491   7.698   2.596  0.1097 -0.1060 -0.5078
  654SOL    HW1 3403   5.571   7.667   2.638 -0.1867  1.6690  1.6083
  654SOL    HW2 3404   5.447   7.619   2.565  1.4047 -1.3406  0.6696
  655SOL     OW 3405   2.996   4.423   9.164  0.3284  0.1426  0.1278
  655SOL    HW1 3406   2.959   4.498   9.210  0.1960  0.5576 -0.6446
  655SOL    HW2 3407   3.031   4.459   9.083 -1.1637 -0.8712 -1.0170
  656SOL     OW 3408   5.521   4.101  11.624 -0.1284  0.2034 -0.4766
  656SOL    HW1 3409   5.507   4.053  11.542 -0.7100  1.1442 -0.9443
  656SOL    HW2 3410   5.614   4.089  11.642 -0.0340 -0.1921 -1.1585
  657SOL     OW 3411   2.399   3.799   0.497  0.3228  0.0031 -0.6072
  657SOL    HW1 3412   2.428   3.710   0.518  2.4232  0.5440 -0.9912
  657SOL    HW2 3413   2.416   3.809   0.403 -0.0106  0.7653 -0.5963
  658SOL     OW 3414   0.427   4.159   7.713 -0.2889 -0.5343 -0.3725
  658SOL    HW1 3415   0.386   4.157   7.799 -0.2468  1.3359 -0.2678
  658SOL    HW2 3416   0.445   4.067   7.693  0.0195 -0.9936  1.7595
  659SOL     OW 3417   5.444   5.738  11.137 -0.1698 -0.0751 -0.4967
  659SOL    HW1 3418   5.384   5.796  11.090 -0.0827  0.9592  0.6219
  659SOL    HW2 3419   5.417   5.744  11.228  1.7499  0.5853  0.0848
  660SOL     OW 3420   1.693   6.383   5.510 -0.6206 -0.4891 -0.9782
  660SOL    HW1 3421   1.761   6.388   5.577 -1.3109  0.1710 -0.3213
  660SOL    HW2 3422   1.642   6.305   5.532 -1.8704  0.6419  0.2671
  661SOL     OW 3423   4.869   5.657   6.749  0.0403  0.2887 -0.0457
  661SOL    HW1 3424   4.858   5.565   6.771 -1.2320  0.1006 -1.3447
  661SOL    HW2 3425   4.854   5.662   6.655 -0.6012  1.9195  0.0989
  662SOL     OW 3426   5.759   4.867   9.667  0.0897  0.5799  0.1489
  662SOL    HW1 3427   5.847   4.893   9.693 -0.1510  1.9581 -0.3134
  662SOL    HW2 3428   5.716   4.949   9.641 -0.5085 -0.3532 -2.0688
  663SOL     OW 3429   0.424   5.130   5.453 -0.1852 -0.7626  0.2609
  663SOL    HW1 3430   0.464   5.198   5.508  1.9476 -3.6280  2.5461
  663SOL    HW2 3431   0.479   5.128   5.375  0.8603 -1.0310  0.9843
  664SOL     OW 3432   4.209   7.673   8.300  0.3661 -0.2436  0.5461
  664SOL    HW1 3433   4.246   7.671   8.388  1.6431  0.6172  0.0628
  664SOL    HW2 3434   4.136   7.611   8.302  1.7650 -1.9077  1.5936
  665SOL     OW 3435   5.495   3.465   7.166  0.5069  0.3263  0.2905
  665SOL    HW1 3436   5.421   3.499   7.217 -0.2001  0.1905 -0.6222
  665SOL    HW2 3437   5.489   3.511   7.082  0.1769 -1.2141 -0.5711
  666SOL     OW 3438   2.132   1.932   4.928 -0.1848  0.7664  0.9662
  666SOL    HW1 3439   2.086   1.978   4.857 -0.0692  0.1211  0.4585
  666SOL    HW2 3440   2.168   2.002   4.982  0.1698  1.2865  0.0918
  667SOL     OW 3441   0.212   2.931   5.857 -0.2112 -0.5061 -0.2976
  667SOL    HW1 3442   0.298   2.957   5.890 -0.4625 -0.4317  0.3142
  667SOL    HW2 3443   0.155   2.938   5.933 -0.6253 -1.2043 -0.5399
  668SOL     OW 3444   6.973   6.833   1.677  0.2148  0.1486  0.5082
  668SOL    HW1 3445   7.033   6.888   1.627 -0.7833  1.3743  0.6172
  668SOL    HW2 3446   6.893   6.831   1.624 -0.2717  0.0621  1.2326
  669SOL     OW 3447   2.558   5.619   8.160  0.1275 -0.5843 -0.4853
  669SOL    HW1 3448   2.463   5.631   8.162  0.2109  0.0094  0.2767
  669SOL    HW2 3449   2.587   5.668   8.083 -0.1459 -0.5053 -0.5381
  670SOL     OW 3450   3.583   6.626   1.830 -0.5268  0.2383  0.6355
  670SOL    HW1 3451   3.577   6.678   1.910 -0.3563  0.6388  0.3908
  670SOL    HW2 3452   3.560   6.537   1.857  2.2830 -0.2570  1.7505
  671SOL     OW 3453   7.193   5.994   7.406  0.7305  0.1136 -0.0813
  671SOL    HW1 3454   7.252   5.947   7.346  0.1587 -1.5202  0.5824
  671SOL    HW2 3455   7.121   6.022   7.350  0.6212 -0.6352 -0.3359
  672SOL     OW 3456   0.316   2.233   2.965  0.3562  0.0382 -0.0235
  672SOL    HW1 3457   0.370   2.236   2.886  0.9667  0.3992  0.4010
  672SOL    HW2 3458   0.368   2.277   3.032 -0.1444 -0.2782  0.5905
  673SOL     OW 3459   7.271   0.455   0.002 -0.3357 -0.4921 -0.0708
  673SOL    HW1 3460   7.217   0.419   0.072 -1.8640 -0.8014 -1.3468
  673SOL    HW2 3461   7.250   0.548  -0.000  1.0573 -0.1171  1.0024
  674SOL     OW 3462   0.264   1.127   3.939  0.2212  0.0228  0.1459
  674SOL    HW1 3463   0.299   1.177   3.865  1.9578 -1.5236 -0.1585
  674SOL    HW2 3464   0.309   1.163   4.016  1.0911 -0.6837 -0.0131
  675SOL     OW 3465   2.516   5.350   0.279  0.2038 -0.6558 -0.1624
  675SOL    HW1 3466   2.527   5.336   0.185 -0.6556 -1.2950 -0.1874
  675SOL    HW2 3467   2.430   5.391   0.287  0.2007 -0.7597  0.3562
  676SOL     OW 3468   0.163   1.427   3.869 -0.3585  0.1443  0.4269
  676SOL    HW1 3469   0.196   1.503   3.822 -0.4091 -0.4128 -0.5215
  676SOL    HW2 3470   0.099   1.464   3.931  0.2681  0.9584  0.6021
  677SOL     OW 3471   5.524   7.402   3.353 -0.5327  0.2438 -0.1144
  677SOL    HW1 3472   5.577   7.443   3.421 -1.5214 -0.2142  0.9787
  677SOL    HW2 3473   5.469   7.472   3.319  0.2388  0.5574 -0.7223
  678SOL     OW 3474   3.405   0.516   6.607 -0.0631 -0.1632  0.1420
  678SOL    HW1 3475   3.398   0.586   6.541 -0.2970 -0.3514 -0.0320
  678SOL    HW2 3476   3.388   0.436   6.559  2.5377 -0.6074 -0.1791
  679SOL     OW 3477   1.255   2.130   6.915 -0.4647  0.1232 -0.1712
  679SOL    HW1 3478   1.319   2.105   6.848 -0.9498  0.6427 -0.8415
  679SOL    HW2 3479   1.276   2.220   6.936  1.7417 -0.9410  2.7700
  680SOL     OW 3480   3.124   7.967   3.156 -0.1151 -0.1352  0.7655
  680SOL    HW1 3481   3.083   8.054   3.158 -0.9926 -0.3683 -2.2705
  680SOL    HW2 3482   3.067   7.913   3.212 -2.0045  0.3640 -0.5784
  681SOL     OW 3483   4.767   2.359   2.647 -0.0900 -0.3141 -0.0574
  681SOL    HW1 3484   4.850   2.334   2.687 -1.1017  0.1275  2.4963
  681SOL    HW2 3485   4.789   2.435   2.593  0.6723  2.4227  3.7159
  682SOL     OW 3486   4.106   0.909   0.888 -0.5410 -0.4251 -0.0512
  682SOL    HW1 3487   4.175   0.959   0.930 -2.1263 -0.5947  3.0587
  682SOL    HW2 3488   4.058   0.973   0.836 -1.0297  0.8197  1.8456
  683SOL     OW 3489   6.533   4.044   7.975 -0.1686 -0.2859  0.1658
  683SOL    HW1 3490   6.605   3.997   7.932  1.3735  0.0198  2.2639
  683SOL    HW2 3491   6.559   4.136   7.973 -0.3728 -0.1944  1.1623
  684SOL     OW 3492   0.987   1.639   9.231  0.1711  0.0716  0.2683
  684SOL    HW1 3493   1.074   1.606   9.256  0.7778  0.4268 -1.2810
  684SOL    HW2 3494   0.962   1.696   9.303  0.9834 -0.4476  0.9826
  685SOL     OW 3495   2.129   0.829   5.277  0.7338 -0.3536 -0.8994
  685SOL    HW1 3496   2.191   0.875   5.221  0.1591  1.4545 -0.1038
  685SOL    HW2 3497   2.048   0.826   5.226  0.5426  0.2601 -0.6414
  686SOL     OW 3498   7.511   0.804  10.539  0.1434 -0.0791  0.5643
  686SOL    HW1 3499   7.565   0.880  10.560  0.0904  0.2220 -0.3878
  686SOL    HW2 3500   7.421   0.838  10.536  0.1882 -0.0427 -0.5119
  687SOL     OW 3501   1.287   0.814  11.537  0.2329 -0.7567  0.4620
  687SOL    HW1 3502   1.274   0.909  11.525  0.3782 -0.8263 -0.2982
  687SOL    HW2 3503   1.311   0.805  11.629  1.0153  0.0338  0.3528
  688SOL     OW 3504   5.358   0.613   6.143 -0.1602  0.1585 -0.1234
  688SOL    HW1 3505   5.447   0.597   6.113 -0.4544  0.4676 -1.2251
  688SOL    HW2 3506   5.303   0.572   6.076 -0.8436 -0.4519  0.7961
  689SOL     OW 3507   0.066   3.833   9.020 -0.9577 -0.4767  0.1308
  689SOL    HW1 3508   0.022   3.882   8.949  0.5380  0.2441 -0.3502
  689SOL    HW2 3509   0.102   3.901   9.077  0.7149 -0.9935 -0.2568
  690SOL     OW 3510   7.646   7.637   2.906  0.6047  0.7404 -0.2603
  690SOL    HW1 3511   7.608   7.680   2.983 -0.0403  0.2947 -0.3226
  690SOL    HW2 3512   7.674   7.710   2.850  0.1593  1.0782 -0.0520
  691SOL     OW 3513   1.197   6.092  10.448 -0.7351  0.5197 -0.4517
  691SOL    HW1 3514   1.158   6.117  10.364 -1.0711  0.3443 -0.3478
  691SOL    HW2 3515   1.260   6.023  10.424  0.6857  1.8946 -0.8242
  692SOL     OW 3516   3.717   1.250   9.191 -0.7946 -0.6635  0.0962
  692SOL    HW1 3517   3.778   1.324   9.200 -0.4318 -0.9768  0.2169
  692SOL    HW2 3518   3.670   1.269   9.109 -0.1216 -0.7138 -0.3144
  693SOL     OW 3519   1.792   6.233   6.494  0.0431 -0.6857 -0.3329
  693SOL    HW1 3520   1.792   6.191   6.580  0.7603  0.8747  0.4790
  693SOL    HW2 3521   1.796   6.161   6.432  2.7687 -1.8507  0.9979
  694SOL     OW 3522   2.193   7.495   3.755 -0.5724  0.1300 -0.2647
  694SOL    HW1 3523   2.109   7.540   3.747  0.4040  2.1623  0.2350
  694SOL    HW2 3524   2.234   7.506   3.669 -0.0721  0.7893  0.0469
  695SOL     OW 3525   2.377   7.411  10.927 -0.7266  0.1794  0.0433
  695SOL    HW1 3526   2.310   7.354  10.966 -1.2240  0.4299 -0.4364
  695SOL    HW2 3527   2.454   7.354  10.918  0.0090  0.5576  3.0090
  696SOL     OW 3528   5.717   4.233   5.254  0.0018  0.7354  0.5644
  696SOL    HW1 3529   5.791   4.270   5.206  0.1425 -0.5543 -0.2593
  696SOL    HW2 3530   5.687   4.160   5.200 -0.9408  0.3184  1.6054
  697SOL     OW 3531   5.047   0.006  11.989 -0.6492  0.5803 -0.0735
  697SOL    HW1 3532   5.020   0.006  12.081  1.6519 -0.2752  0.6649
  697SOL    HW2 3533   4.989  -0.058  11.948 -2.2411  1.5335  0.5440
  698SOL     OW 3534   0.040   7.311   9.718  0.0493  0.0067  0.2880
  698SOL    HW1 3535  -0.049   7.342   9.699  0.2368 -0.3158 -1.3102
  698SOL    HW2 3536   0.033   7.263   9.800 -1.3766 -0.5024 -0.1097
  699SOL     OW 3537   2.607   1.837   8.264  0.0918 -0.2003  0.1279
  699SOL    HW1 3538   2.536   1.898   8.245 -1.5837 -1.0954  2.9164
  699SOL    HW2 3539   2.563   1.760   8.299  2.3279 -1.8606 -0.5214
  700SOL     OW 3540   0.935   7.195  12.191  0.2241 -0.1712 -0.2020
  700SOL    HW1 3541   0.881   7.216  12.114 -0.3523 -1.3512 -0.1353
  700SOL    HW2 3542   0.937   7.100  12.194  0.4224 -0.1434  1.1355
  701SOL     OW 3543   7.804   3.261   1.882 -0.2676 -0.3405  0.8210
  701SOL    HW1 3544   7.861   3.188   1.906 -1.0563 -0.8547  1.1738
  701SOL    HW2 3545   7.828   3.281   1.791  2.4702  1.3767  1.8187
  702SOL     OW 3546   1.222   4.537  10.318 -0.1224 -0.0540 -0.1318
  702SOL    HW1 3547   1.218   4.447  10.352 -0.9463  0.1554  0.3545
  702SOL    HW2 3548   1.270   4.529  10.236 -1.9428 -1.2991 -1.1641
  703SOL     OW 3549   2.754   5.504  10.769  0.6515  0.1890  0.8246
  703SOL    HW1 3550   2.751   5.415  10.733  0.8773  0.2791  0.5795
  703SOL    HW2 3551   2.667   5.517  10.808  0.1431  0.3556 -0.3367
  704SOL     OW 3552   1.549   0.170  11.844  0.6577 -0.4664  0.0810
  704SOL    HW1 3553   1.521   0.149  11.933  0.0389  0.7480  0.1908
  704SOL    HW2 3554   1.621   0.232  11.855 -0.1940  0.6058 -0.2672
  705SOL     OW 3555   4.495   5.032   6.309  0.3573  0.8451  0.0263
  705SOL    HW1 3556   4.493   5.115   6.357  0.1895 -0.9907  3.4635
  705SOL    HW2 3557   4.584   5.026   6.275  0.9861  1.5168  1.4881
  706SOL     OW 3558   7.156   7.687  11.198  0.1850  0.0722 -0.6558
  706SOL    HW1 3559   7.208   7.625  11.249  0.4489 -0.2478 -1.2861
  706SOL    HW2 3560   7.212   7.707  11.122 -0.3269  0.2726 -0.9835
  707SOL     OW 3561   1.027   3.177   7.283 -0.1189  0.0730 -0.1880
  707SOL    HW1 3562   1.011   3.227   7.204 -3.4313  2.5162  1.7860
  707SOL    HW2 3563   0.943   3.136   7.303  0.3780  0.1675  2.4094
  708SOL     OW 3564   2.500   6.755   4.817  0.3547  0.5050 -0.2233
  708SOL    HW1 3565   2.427   6.816   4.820 -0.4278 -0.3335 -1.2754
  708SOL    HW2 3566   2.561   6.795   4.755 -0.3641  0.0303 -1.2648
  709SOL     OW 3567   5.646   0.457   3.498  0.1028  1.1199  0.6325
  709SOL    HW1 3568   5.692   0.533   3.463  0.2523 -0.2362 -2.5111
  709SOL    HW2 3569   5.703   0.383   3.474 -1.3493 -0.1764  1.0668
  710SOL     OW 3570   0.730   6.616   4.814  0.0306  0.4592  0.2384
  710SOL    HW1 3571   0.651   6.570   4.785 -0.3375 -0.1010  2.0505
  710SOL    HW2 3572   0.792   6.603   4.742 -0.5923 -1.5397 -0.0118
  711SOL     OW 3573   2.265   1.774   9.957  0.0439  0.0507 -0.0640
  711SOL    HW1 3574   2.335   1.717   9.925  0.0760  0.5718 -0.9611
  711SOL    HW2 3575   2.203   1.777   9.885  0.3262  1.6208 -0.2649
  712SOL     OW 3576   3.195   5.162   4.933 -0.5483  0.2961  0.0019
  712SOL    HW1 3577   3.100   5.159   4.922 -0.5689  1.4024 -0.2373
  712SOL    HW2 3578   3.210   5.234   4.996  0.1394  0.2972 -0.1501
  713SOL     OW 3579   4.924   5.051  12.155 -0.2916 -0.4914  0.0225
  713SOL    HW1 3580   4.961   5.100  12.082 -0.8727  0.9373  0.6467
  713SOL    HW2 3581   4.837   5.089  12.168 -0.3083 -0.9029  1.2805
  714SOL     OW 3582   7.435   3.073  11.226 -0.2129 -0.5024  0.2437
  714SOL    HW1 3583   7.418   3.039  11.138 -2.4093 -1.9719  1.1569
  714SOL    HW2 3584   7.421   3.167  11.218  1.5625 -0.3072 -1.3548
  715SOL     OW 3585   2.186   1.071   0.803 -0.3978  0.2955 -0.5028
  715SOL    HW1 3586   2.238   1.064   0.883 -1.3118 -0.0532  0.0709
  715SOL    HW2 3587   2.141   1.155   0.811 -0.4269  0.2975 -0.6916
  716SOL     OW 3588   1.579   1.673   6.840  0.0351 -0.2455 -0.2651
  716SOL    HW1 3589   1.587   1.594   6.787 -2.1284  0.6907 -2.1687
  716SOL    HW2 3590   1.521   1.648   6.912  1.2907 -0.9717  0.5282
  717SOL     OW 3591   6.064   4.925   3.627 -0.2697 -0.0886 -0.3377
  717SOL    HW1 3592   6.128   4.948   3.695 -0.1033 -0.1084 -0.4873
  717SOL    HW2 3593   6.115   4.919   3.547 -0.2751 -1.0925 -0.2874
  718SOL     OW 3594   2.063   0.292   5.158  0.3275  0.8870  0.4991
  718SOL    HW1 3595   1.983   0.343   5.172  1.3215  2.4874  0.6495
  718SOL    HW2 3596   2.125   0.328   5.221  1.1605 -0.3483  0.4111
  719SOL     OW 3597   7.014   3.478   9.670  0.0963  0.4578 -0.2336
  719SOL    HW1 3598   6.955   3.535   9.620 -1.8194 -0.6012  0.7369
  719SOL    HW2 3599   7.077   3.539   9.709 -1.3655  1.8602  0.0755
  720SOL     OW 3600   0.291   0.940  11.459  0.4236 -0.2977  0.8594
  720SOL    HW1 3601   0.248   1.024  11.474  2.3557  0.6296  1.6263
  720SOL    HW2 3602   0.272   0.890  11.538 -2.8109 -1.6350 -0.6130
  721SOL     OW 3603   0.549   0.632   3.020 -0.3969 -0.4107  0.0558
  721SOL    HW1 3604   0.533   0.588   2.936  0.4473  0.5108 -0.6168
  721SOL    HW2 3605   0.644   0.640   3.025 -0.2740 -2.3363  2.1299
  722SOL     OW 3606   1.158   1.844   8.408 -0.0577  0.4832  0.0831
  722SOL    HW1 3607   1.065   1.864   8.395  0.1315  1.5033  0.1960
  722SOL    HW2 3608   1.186   1.803   8.326  0.1095  3.0088 -1.2265
  723SOL     OW 3609   7.916   6.158   4.705 -0.0391  0.1983  0.3222
  723SOL    HW1 3610   7.982   6.185   4.642 -0.6861  1.0760 -0.0029
  723SOL    HW2 3611   7.914   6.230   4.769 -0.0508 -0.2434  0.8264
  724SOL     OW 3612   7.361   4.147   1.677  0.1026  0.1533 -0.1623
  724SOL    HW1 3613   7.381   4.159   1.584 -1.2069  1.7348 -0.2783
  724SOL    HW2 3614   7.328   4.057   1.683  1.6490 -0.5047 -0.9263
  725SOL     OW 3615   0.777   6.935   1.606 -0.0886 -0.9940 -0.1769
  725SOL    HW1 3616   0.761   7.026   1.581 -1.0082 -1.2336 -0.5119
  725SOL    HW2 3617   0.750   6.884   1.530  0.9648 -1.5271 -0.2077
  726SOL     OW 3618   5.138   7.095   0.187  0.2959 -0.5075  0.0579
  726SOL    HW1 3619   5.202   7.043   0.236 -1.1000  0.5838  3.3543
  726SOL    HW2 3620   5.063   7.037   0.177 -0.2951 -0.0317  1.4379
  727SOL     OW 3621   3.578   6.730  12.276  0.3605 -0.0758  0.2523
  727SOL    HW1 3622   3.667   6.696  12.288  0.3248 -0.5751 -0.8065
  727SOL    HW2 3623   3.529   6.693  12.350  1.0824  0.4206  0.9962
  728SOL     OW 3624   1.579   4.546   7.800 -0.0997  0.1965 -0.0335
  728SOL    HW1 3625   1.579   4.453   7.776 -0.9181 -0.1828  1.3579
  728SOL    HW2 3626   1.491   4.563   7.833 -0.0698  1.5676 -0.5786
  729SOL     OW 3627   1.273   1.490   8.133 -0.4213  0.1318  0.1936
  729SOL    HW1 3628   1.255   1.546   8.058 -0.2097 -1.5009 -1.1320
  729SOL    HW2 3629   1.207   1.515   8.198 -1.0306  1.1249 -0.7730
  730SOL     OW 3630   4.770   5.526  11.195 -0.0433 -0.0268  0.0080
  730SOL    HW1 3631   4.806   5.589  11.133 -1.0002  1.0064  0.4885
  730SOL    HW2 3632   4.800   5.556  11.280  0.5717 -0.9699  0.1424
  731SOL     OW 3633   3.113   5.251   0.357  0.6611  0.1075  0.0907
  731SOL    HW1 3634   3.074   5.328   0.316 -0.0001 -0.8984 -1.2203
  731SOL    HW2 3635   3.195   5.237   0.310  0.5992 -0.2094  0.0732
  732SOL     OW 3636   4.482   6.138   5.149 -0.2666 -0.2598  0.2073
  732SOL    HW1 3637   4.472   6.055   5.101  1.0092  0.1373 -0.7906
  732SOL    HW2 3638   4.477   6.206   5.082  0.2088  0.3871  0.8131
  733SOL     OW 3639   0.095   1.214   3.731  0.5893 -0.6851 -0.2069
  733SOL    HW1 3640   0.133   1.149   3.790  1.7955  0.8713  0.8020
  733SOL    HW2 3641   0.131   1.298   3.760 -1.4832  0.5542 -0.9885
  734SOL     OW 3642   0.155   7.745   1.101  0.1596  0.6010  0.2624
  734SOL    HW1 3643   0.248   7.760   1.086  0.5957  0.2808  2.3222
  734SOL    HW2 3644   0.130   7.811   1.165 -0.6122 -0.3377  0.9661
  735SOL     OW 3645   5.901   1.112   3.616 -0.1590  0.0005 -0.0296
  735SOL    HW1 3646   5.877   1.121   3.708  0.6520 -0.8302  0.2801
  735SOL    HW2 3647   5.941   1.197   3.593  1.1825 -0.3448  0.8842
  736SOL     OW 3648   7.139   5.213   5.647 -0.6149  0.0999  0.2787
  736SOL    HW1 3649   7.071   5.193   5.582 -0.2130  1.1482 -0.4974
  736SOL    HW2 3650   7.100   5.281   5.702 -0.2743  0.5538 -0.0379
  737SOL     OW 3651   0.036   3.286   4.692  0.2991 -0.4135  0.0168
  737SOL    HW1 3652  -0.002   3.370   4.718 -0.7745 -1.1871  1.0690
  737SOL    HW2 3653   0.082   3.256   4.770  1.1055 -0.5902 -0.5131
  738SOL     OW 3654   3.484   6.423   5.941  0.5938  0.1834 -0.5110
  738SOL    HW1 3655   3.403   6.473   5.947 -0.6847 -1.7719 -0.4406
  738SOL    HW2 3656   3.456   6.335   5.915  2.4888 -1.0553  1.2986
  739SOL     OW 3657   5.407   5.550   7.409  0.4139  0.1857 -0.3341
  739SOL    HW1 3658   5.397   5.645   7.401 -1.6384  0.1166  0.7786
  739SOL    HW2 3659   5.496   5.538   7.444 -0.0719  1.8394  1.6493
  740SOL     OW 3660   6.954   4.906   0.899  0.1394  0.6215 -0.1826
  740SOL    HW1 3661   6.964   4.813   0.879  0.0642  0.5830 -0.0475
  740SOL    HW2 3662   6.867   4.913   0.938  0.3144  0.6785  0.2027
  741SOL     OW 3663   0.919   6.324   2.970 -0.1073  0.0825 -0.0716
  741SOL    HW1 3664   0.960   6.402   3.007  0.2446  0.2882 -0.8765
  741SOL    HW2 3665   0.908   6.343   2.877 -2.9397  0.4189  0.2304
  742SOL     OW 3666   6.799   4.230   5.529 -0.0242 -0.1239 -0.5234
  742SOL    HW1 3667   6.780   4.323   5.522 -0.1109 -0.1085 -0.0665
  742SOL    HW2 3668   6.724   4.187   5.488 -0.7425 -0.0408  0.6482
  743SOL     OW 3669   7.351   7.556  10.802 -0.5181  0.8312  0.2492
  743SOL    HW1 3670   7.335   7.613  10.726  0.2250  0.1124 -0.4744
  743SOL    HW2 3671   7.305   7.474  10.780 -0.4363  0.6758  0.6541
  744SOL     OW 3672   0.672   2.127   2.509 -0.1516  0.4016 -0.1054
  744SOL    HW1 3673   0.757   2.161   2.537  0.8159 -1.2406 -0.8473
  744SOL    HW2 3674   0.614   2.203   2.509  0.8308  1.2465  2.1851
  745SOL     OW 3675   1.614   2.012   6.297 -0.3026 -0.1816  0.7493
  745SOL    HW1 3676   1.636   2.068   6.372 -2.0468 -0.0999  1.2490
  745SOL    HW2 3677   1.529   1.974   6.320 -1.3480  0.5876 -1.6006
  746SOL     OW 3678   7.782   5.441   5.652  0.3316  0.4084 -0.1447
  746SOL    HW1 3679   7.832   5.366   5.683 -0.8225 -1.0301 -1.6311
  746SOL    HW2 3680   7.842   5.515   5.661  1.0952 -0.4119  2.5112
  747SOL     OW 3681   5.790   4.296  11.578  0.4187 -0.0643 -0.3573
  747SOL    HW1 3682   5.790   4.358  11.651  1.6718  1.6919 -1.7758
  747SOL    HW2 3683   5.857   4.232  11.600 -0.9209 -1.0124  1.1466
  748SOL     OW 3684   2.947   6.715   1.518 -0.2254  0.2074  0.2557
  748SOL    HW1 3685   2.992   6.769   1.583  0.3730  1.4358 -1.1304
  748SOL    HW2 3686   2.985   6.628   1.529  2.4888  1.1664 -0.7592
  749SOL     OW 3687   4.830   3.782   4.646  0.0328 -0.0568 -0.3952
  749SOL    HW1 3688   4.866   3.838   4.577 -0.6920  1.1484  0.1796
  749SOL    HW2 3689   4.740   3.812   4.657 -0.1707 -0.9171  0.3758
  750SOL     OW 3690   5.241   1.674   2.972 -0.1172  0.0572  0.6094
  750SOL    HW1 3691   5.178   1.737   2.937 -0.4012 -0.9835 -0.8179
  750SOL    HW2 3692   5.188   1.609   3.017  0.1202  0.3900  1.3907
  751SOL     OW 3693   4.055   5.343   5.833  0.3997  0.0638  0.3833
  751SOL    HW1 3694   4.090   5.333   5.922  0.4122 -1.9135  0.2048
  751SOL    HW2 3695   4.062   5.255   5.795 -0.3591  0.6987 -1.2993
  752SOL     OW 3696   4.854   2.796   9.748  0.1771 -0.0613 -0.4477
  752SOL    HW1 3697   4.816   2.768   9.665 -1.2830 -0.2810  0.2559
  752SOL    HW2 3698   4.880   2.887   9.733 -0.6692  0.1086 -0.9581
  753SOL     OW 3699   4.376   7.962   4.642 -0.0197 -0.3634 -0.1311
  753SOL    HW1 3700   4.346   8.038   4.592  1.4830 -0.3493 -1.0866
  753SOL    HW2 3701   4.356   7.984   4.733  1.0768  1.5736 -0.2904
  754SOL     OW 3702   5.278   7.658  10.892 -0.5780 -0.1848  0.2867
  754SOL    HW1 3703   5.236   7.721  10.952  1.3503  1.5549 -0.0623
  754SOL    HW2 3704   5.372   7.670  10.908 -0.0841 -1.1532 -1.6311
  755SOL     OW 3705   2.492   5.542   2.174 -0.1273 -0.7707  0.4136
  755SOL    HW1 3706   2.525   5.630   2.195  1.5278 -0.5590 -2.6187
  755SOL    HW2 3707   2.570   5.487   2.170 -0.8649 -1.7972 -0.2968
  756SOL     OW 3708   4.352   6.033   4.551 -0.3445 -0.7200  0.4157
  756SOL    HW1 3709   4.283   6.084   4.509  0.8883  0.3632 -0.3712
  756SOL    HW2 3710   4.323   6.024   4.642 -0.0208  2.6276  0.9953
  757SOL     OW 3711   2.080   0.601   5.643 -0.5010  0.1136 -0.1899
  757SOL    HW1 3712   2.139   0.602   5.568 -0.8897 -2.4198 -0.6449
  757SOL    HW2 3713   1.992   0.595   5.604 -1.0293  2.3970  0.4883
  758SOL     OW 3714   4.385   7.046   5.150  0.2676 -0.2933 -0.2165
  758SOL    HW1 3715   4.362   7.055   5.242 -0.1932  2.1340 -0.5056
  758SOL    HW2 3716   4.306   7.012   5.108 -0.1036  0.2671  0.0274
  759SOL     OW 3717   6.430   3.567  10.080 -0.4622 -0.1113  0.1073
  759SOL    HW1 3718   6.512   3.538  10.120  0.4111 -0.7557 -2.0029
  759SOL    HW2 3719   6.403   3.642  10.134  0.9084 -0.5610  1.5193
  760SOL     OW 3720   2.992   1.465   6.813  0.0381  0.2634  0.2464
  760SOL    HW1 3721   2.967   1.406   6.884 -0.1795 -0.7608 -0.6561
  760SOL    HW2 3722   3.043   1.411   6.753  3.2451  1.8957  1.2563
  761SOL     OW 3723   0.424   2.160  10.718  0.1207  0.2518 -0.7004
  761SOL    HW1 3724   0.404   2.152  10.625 -0.4309 -0.1923 -0.5456
  761SOL    HW2 3725   0.396   2.248  10.741 -1.9971 -0.4474 -0.4220
  762SOL     OW 3726   2.396   5.629   3.228  0.4926  0.0264 -0.0147
  762SOL    HW1 3727   2.421   5.667   3.143 -1.3528  0.7814 -0.2535
  762SOL    HW2 3728   2.449   5.550   3.234 -0.3605 -0.8468 -2.5857
  763SOL     OW 3729   5.452   4.429   8.944  0.7509  0.6465  0.1479
  763SOL    HW1 3730   5.385   4.395   8.884  1.1414  1.7288 -0.9491
  763SOL    HW2 3731   5.516   4.358   8.949  0.8856  0.6675 -1.0217
  764SOL     OW 3732   3.202   4.835   8.648  0.2779  0.4137 -0.0082
  764SOL    HW1 3733   3.208   4.774   8.574 -0.4104  0.7063 -0.3106
  764SOL    HW2 3734   3.280   4.816   8.700 -0.2562 -1.1979  0.2644
  765SOL     OW 3735   6.617   3.735   0.002 -0.7018 -0.4345  0.1105
  765SOL    HW1 3736   6.639   3.698  -0.083  0.3925  0.0158  0.1796
  765SOL    HW2 3737   6.638   3.828  -0.006 -1.6206 -0.1787  0.5367
  766SOL     OW 3738   2.979   4.747   1.774  0.5414 -0.2516 -0.3724
  766SOL    HW1 3739   2.975   4.719   1.682 -0.3240 -1.1465 -0.0742
  766SOL    HW2 3740   3.067   4.723   1.802  0.2049 -1.6367 -0.4610
  767SOL     OW 3741   2.326   0.765   3.806  0.4806 -0.3205 -0.6775
  767SOL    HW1 3742   2.373   0.709   3.868  0.1025  0.2876  0.1719
  767SOL    HW2 3743   2.343   0.854   3.837 -0.9618 -0.0762 -0.5332
  768SOL     OW 3744   1.890   6.489   9.333 -0.1657  0.1167  0.4651
  768SOL    HW1 3745   1.978   6.512   9.364  0.6381  0.0070 -1.5423
  768SOL    HW2 3746   1.905   6.418   9.270 -1.4763  1.1304 -1.0914
  769SOL     OW 3747   1.425   1.651  12.351 -0.2781  0.3718  0.3992
  769SOL    HW1 3748   1.461   1.706  12.282 -1.1115  0.7023  0.2163
  769SOL    HW2 3749   1.331   1.667  12.348 -0.2496  1.3521  2.4066
  770SOL     OW 3750   4.237   3.349   6.071  0.2989 -0.4574 -0.6200
  770SOL    HW1 3751   4.284   3.271   6.040  0.0530 -1.1273  0.6212
  770SOL    HW2 3752   4.145   3.331   6.050  0.5032  0.7525 -2.8389
  771SOL     OW 3753   6.333   4.378   2.973 -0.2558  0.7205 -0.6861
  771SOL    HW1 3754   6.298   4.308   2.917  2.8003 -0.6449 -1.0695
  771SOL    HW2 3755   6.331   4.456   2.917  1.1473 -0.2557 -2.1866
  772SOL     OW 3756   7.349   3.280   7.396 -0.3614 -0.0996 -0.2544
  772SOL    HW1 3757   7.396   3.236   7.326 -0.1172 -1.1130  0.5217
  772SOL    HW2 3758   7.335   3.369   7.363 -0.2627 -0.5489 -1.5757
  773SOL     OW 3759   0.021   2.150   3.865 -0.1978 -0.2715 -1.3061
  773SOL    HW1 3760   0.106   2.139   3.906 -0.0486  0.1062 -1.5189
  773SOL    HW2 3761   0.021   2.087   3.792 -0.1398 -0.3416 -1.2452
  774SOL     OW 3762   0.578   4.163   0.647 -0.2200  0.2916  0.1766
  774SOL    HW1 3763   0.511   4.206   0.701 -2.1434 -0.6378 -1.3352
  774SOL    HW2 3764   0.607   4.089   0.701 -1.4185 -0.0798  0.3411
  775SOL     OW 3765   6.898   6.126   9.667  0.8668 -0.2202 -0.2925
  775SOL    HW1 3766   6.994   6.132   9.673  0.7838  1.2641 -0.1184
  775SOL    HW2 3767   6.871   6.210   9.632 -0.4164 -0.4833  0.0279
  776SOL     OW 3768   3.415   6.434  12.180  0.3367  0.3828 -0.3671
  776SOL    HW1 3769   3.411   6.357  12.237  0.2460  1.4360  1.0961
  776SOL    HW2 3770   3.503   6.468  12.192  0.4649  0.3696 -1.2211
  777SOL     OW 3771   3.926   7.214   1.478  0.2226  0.5408  0.5888
  777SOL    HW1 3772   4.017   7.241   1.488  1.2148 -1.2069 -2.3684
  777SOL    HW2 3773   3.931   7.120   1.462 -1.6919  0.8523 -2.7994
  778SOL     OW 3774   6.599   4.849   7.720  0.2349 -0.0663 -0.0094
  778SOL    HW1 3775   6.515   4.894   7.709 -0.5063 -1.3763  0.0475
  778SOL    HW2 3776   6.587   4.765   7.677  1.0573 -0.8199  1.1636
  779SOL     OW 3777   0.194   0.775  10.674 -0.3934 -0.0440 -0.1264
  779SOL    HW1 3778   0.286   0.752  10.656 -0.7399  0.0944 -2.3541
  779SOL    HW2 3779   0.165   0.708  10.736  1.3218  0.1990  1.0385
  780SOL     OW 3780   5.184   6.198   1.869  0.7498  0.2586  0.0864
  780SOL    HW1 3781   5.218   6.254   1.939 -1.7965 -0.4306  2.0040
  780SOL    HW2 3782   5.173   6.258   1.795  0.4248  1.7928  1.3143
  781SOL     OW 3783   5.327   4.236   5.465  0.3752  0.0279 -0.5259
  781SOL    HW1 3784   5.360   4.315   5.509 -0.4447  0.7331 -1.1371
  781SOL    HW2 3785   5.322   4.261   5.373  1.3134 -1.1679 -0.9225
  782SOL     OW 3786   5.208   4.749  11.335  0.6373 -0.0215  0.1820
  782SOL    HW1 3787   5.177   4.705  11.256  0.6709 -0.0976  0.2111
  782SOL    HW2 3788   5.133   4.749  11.394  0.3388  0.8288 -0.1850
  783SOL     OW 3789   4.417   3.924   7.569  0.0614 -0.0048 -0.0094
  783SOL    HW1 3790   4.393   4.016   7.558  2.5711  0.6990 -0.2286
  783SOL    HW2 3791   4.345   3.875   7.528 -0.7051  1.8880 -1.0379
  784SOL     OW 3792   2.159   6.637   9.650 -0.3168  0.4691  0.2281
  784SOL    HW1 3793   2.073   6.595   9.640 -0.3023  0.1389  1.3551
  784SOL    HW2 3794   2.221   6.568   9.627 -0.3120  0.0418  1.4479
  785SOL     OW 3795   4.545   4.936   4.336 -0.3058 -0.2115  0.3534
  785SOL    HW1 3796   4.551   4.998   4.263  0.9474 -0.5170  0.1841
  785SOL    HW2 3797   4.451   4.931   4.355 -0.5714  0.5031 -0.6885
  786SOL     OW 3798   0.190   6.921   0.212 -0.1466  0.0510  0.2745
  786SOL    HW1 3799   0.107   6.908   0.167  0.7661 -1.0059 -1.1855
  786SOL    HW2 3800   0.166   6.954   0.299 -2.0556  0.0500 -0.2282
  787SOL     OW 3801   3.069   2.568   1.615  0.4623  0.0726  0.9128
  787SOL    HW1 3802   2.973   2.564   1.614  0.5214 -2.5403  0.5280
  787SOL    HW2 3803   3.094   2.559   1.523  1.0898  0.0768  1.0816
  788SOL     OW 3804   0.195   1.267   2.465  0.3862 -0.1565  0.1814
  788SOL    HW1 3805   0.233   1.238   2.548  0.2554  0.3766  0.4295
  788SOL    HW2 3806   0.268   1.310   2.420  0.8830 -1.8512 -0.6782
  789SOL     OW 3807   0.362   7.564   3.598  0.0314 -0.2502  0.4643
  789SOL    HW1 3808   0.457   7.556   3.595 -0.0805 -1.5133 -0.4513
  789SOL    HW2 3809   0.334   7.551   3.507 -0.8610  2.6611  0.2123
  790SOL     OW 3810   0.960   1.368   4.867 -0.2852 -0.4308 -0.3000
  790SOL    HW1 3811   1.036   1.425   4.855  0.2528 -0.6325  1.6993
  790SOL    HW2 3812   0.896   1.399   4.804  1.4883 -0.3589 -2.1725
  791SOL     OW 3813   1.900   0.916   3.491 -0.0039  0.0929 -0.1640
  791SOL    HW1 3814   1.882   1.007   3.465  0.6589  0.3156  0.1354
  791SOL    HW2 3815   1.995   0.913   3.502 -0.0306 -0.6276 -0.1204
  792SOL     OW 3816   0.206   7.386   7.063 -0.4895 -0.0478 -0.2522
  792SOL    HW1 3817   0.292   7.347   7.045  0.9267  2.2105  1.0914
  792SOL    HW2 3818   0.183   7.356   7.151 -0.3153  0.5923  0.0141
  793SOL     OW 3819   7.556   2.275   0.732  0.9039 -0.2026 -0.0768
  793SOL    HW1 3820   7.590   2.228   0.656  1.6602 -0.1202  0.2059
  793SOL    HW2 3821   7.542   2.364   0.701  0.4740 -0.3479 -0.3220
  794SOL     OW 3822   3.671   4.996   3.695 -0.0798  0.1264 -0.1678
  794SOL    HW1 3823   3.708   4.908   3.702 -1.5478 -0.5826 -0.8643
  794SOL    HW2 3824   3.590   4.984   3.646 -0.5238  1.8161  0.0886
  795SOL     OW 3825   4.410   6.558  11.897  0.1760 -0.1478  0.3006
  795SOL    HW1 3826   4.368   6.609  11.966 -1.4173 -1.0651  0.0695
  795SOL    HW2 3827   4.337   6.521  11.847  1.2874 -1.0799 -0.7036
  796SOL     OW 3828   1.939   3.131   4.686  0.1364 -0.1438 -0.1837
  796SOL    HW1 3829   1.985   3.208   4.720 -0.3484 -0.4501  1.2780
  796SOL    HW2 3830   1.946   3.138   4.591 -0.0050  1.7708 -0.0931
  797SOL     OW 3831   1.652   1.939  12.358 -0.5792  0.4205 -0.2461
  797SOL    HW1 3832   1.644   1.896  12.273  0.5684  0.6523 -0.4770
  797SOL    HW2 3833   1.562   1.966  12.379 -1.0103 -0.3894 -0.9744
  798SOL     OW 3834   4.353   0.297   6.220 -0.4431 -0.4205  0.3130
  798SOL    HW1 3835   4.273   0.255   6.252 -1.0481 -0.9872 -1.7957
  798SOL    HW2 3836   4.323   0.377   6.178  0.3539  0.4557  1.3760
  799SOL     OW 3837   3.498   6.306  10.905  0.0325 -0.6860  0.4442
  799SOL    HW1 3838   3.475   6.277  10.993  0.6263 -0.2859  0.7359
  799SOL    HW2 3839   3.423   6.281  10.851  0.1907 -2.0836  0.8227
  800SOL     OW 3840   1.220   6.375   7.613 -0.0412  0.7650 -0.2108
  800SOL    HW1 3841   1.254   6.337   7.531  1.3754 -0.1454  0.7604
  800SOL    HW2 3842   1.165   6.306   7.650 -0.1911  0.9509 -0.0864
  801SOL     OW 3843   2.573   6.207  10.052  0.1914  0.2503  0.2062
  801SOL    HW1 3844   2.640   6.267  10.084  0.1283 -0.6712  2.2669
  801SOL    HW2 3845   2.591   6.125  10.098 -0.4852 -0.9493 -1.5779
  802SOL     OW 3846   3.297   5.978   4.426  0.1236 -0.4449  0.3796
  802SOL    HW1 3847   3.246   6.005   4.503  0.2490 -0.3687  0.4375
  802SOL    HW2 3848   3.281   5.884   4.419 -0.9352 -0.2349 -0.2869
  803SOL     OW 3849   6.470   5.588   0.291  0.0203  0.3762  0.4261
  803SOL    HW1 3850   6.378   5.590   0.320  0.4577 -0.6267  2.0590
  803SOL    HW2 3851   6.473   5.647   0.216 -2.0524  0.0827  0.0492
  804SOL     OW 3852   1.392   2.893   3.117 -0.4787 -0.7963  0.1515
  804SOL    HW1 3853   1.478   2.903   3.076 -1.3555  1.8636 -1.2436
  804SOL    HW2 3854   1.409   2.835   3.192  2.3461 -1.0044 -0.5130
  805SOL     OW 3855   6.573   2.764   7.846 -0.4035  0.2237  0.3246
  805SOL    HW1 3856   6.598   2.764   7.754 -0.8799  2.0033  0.1530
  805SOL    HW2 3857   6.606   2.681   7.880  0.2087 -0.2481 -1.3258
  806SOL     OW 3858   3.581   5.839   8.683  0.7041  0.3294  0.3123
  806SOL    HW1 3859   3.607   5.868   8.770 -0.5740  0.5574  0.6421
  806SOL    HW2 3860   3.618   5.905   8.624  1.7274  0.0773  0.6506
  807SOL     OW 3861   3.649   2.144  11.091  0.2032 -0.6242 -0.6780
  807SOL    HW1 3862   3.663   2.236  11.114 -0.8337 -1.2760  3.1455
  807SOL    HW2 3863   3.582   2.113  11.152 -0.3163 -3.6996 -2.5689
  808SOL     OW 3864   7.493   5.735   9.476  0.2049 -0.1336 -0.3166
  808SOL    HW1 3865   7.554   5.702   9.409  0.7260 -0.4140  0.2843
  808SOL    HW2 3866   7.406   5.710   9.444  0.4203  0.0154 -1.0450
  809SOL     OW 3867   5.650   5.271   6.621 -0.1452  0.1344 -0.9081
  809SOL    HW1 3868   5.630   5.263   6.714  1.1285  0.8414 -0.5460
  809SOL    HW2 3869   5.745   5.281   6.618 -0.2571  1.0509 -2.2187
  810SOL     OW 3870   3.445   1.587   3.840  0.4262 -0.0507 -0.2671
  810SOL    HW1 3871   3.350   1.587   3.825  0.4426 -0.3768 -0.3802
  810SOL    HW2 3872   3.483   1.576   3.752  0.5342 -1.7232 -0.0410
  811SOL     OW 3873   4.551   7.186   4.344  0.1591  0.5047 -0.5446
  811SOL    HW1 3874   4.462   7.219   4.334 -0.5279 -0.7799  0.9227
  811SOL    HW2 3875   4.599   7.259   4.384 -0.5136  0.8232 -0.2957
  812SOL     OW 3876   7.911   4.706   6.927 -0.3455 -0.0312  0.1186
  812SOL    HW1 3877   7.848   4.680   6.994  0.3217  0.0635  0.7918
  812SOL    HW2 3878   7.943   4.791   6.956  0.8649 -0.5502  0.3465
  813SOL     OW 3879   6.253   3.556   6.470 -0.1249  0.2310  0.0595
  813SOL    HW1 3880   6.212   3.478   6.433 -0.6603  0.0068  1.0883
  813SOL    HW2 3881   6.300   3.523   6.547  0.9598  0.6847 -0.3790
  814SOL     OW 3882   2.234   5.347   1.192 -0.1731  0.5248 -0.0129
  814SOL    HW1 3883   2.243   5.435   1.229  0.2601  0.0297  1.0904
  814SOL    HW2 3884   2.241   5.288   1.267 -1.8051 -0.4153 -0.5341
  815SOL     OW 3885   5.810   4.119   7.647  0.5975  0.3827  0.2901
  815SOL    HW1 3886   5.867   4.051   7.683 -1.3477 -1.3320  0.3350
  815SOL    HW2 3887   5.810   4.188   7.713  2.6728  0.5131  0.2212
  816SOL     OW 3888   3.221   4.320  11.847  0.3480 -0.2049 -0.8241
  816SOL    HW1 3889   3.207   4.359  11.933  0.2979  0.9968 -1.3549
  816SOL    HW2 3890   3.179   4.234  11.852  0.0280  0.0039  0.2311
  817SOL     OW 3891   3.221   3.357   9.800  0.5265  0.0687 -0.0284
  817SOL    HW1 3892   3.157   3.393   9.862  0.7565  0.4060  0.0158
  817SOL    HW2 3893   3.245   3.273   9.836 -0.0433 -0.1506 -0.1466
  818SOL     OW 3894   7.901   1.072   7.516  0.1844 -0.0189 -0.1900
  818SOL    HW1 3895   7.819   1.034   7.544 -0.3516  0.8561 -0.5167
  818SOL    HW2 3896   7.941   1.107   7.596  0.3095 -0.5759 -0.0104
  819SOL     OW 3897   0.440   5.633   4.665  0.6128  0.0753  0.2319
  819SOL    HW1 3898   0.380   5.565   4.697 -2.4828  1.6652 -1.7085
  819SOL    HW2 3899   0.459   5.686   4.741 -1.3128  0.0704  0.7691
  820SOL     OW 3900   5.190   4.525   5.191  0.4286  0.5138 -0.3382
  820SOL    HW1 3901   5.228   4.539   5.278 -1.1405 -1.1539  0.6825
  820SOL    HW2 3902   5.110   4.577   5.191  0.4159  0.4980 -0.7840
  821SOL     OW 3903   1.861   2.255   5.167 -0.0401 -0.2995 -0.0364
  821SOL    HW1 3904   1.954   2.233   5.175 -0.0723 -0.3840  0.1124
  821SOL    HW2 3905   1.816   2.172   5.183 -0.1795 -0.0409  0.9507
  822SOL     OW 3906   3.382   2.646  11.699  0.4021  0.4641  0.6759
  822SOL    HW1 3907   3.334   2.694  11.766 -1.1244  0.9561 -0.7005
  822SOL    HW2 3908   3.349   2.556  11.707 -2.8386  1.2201 -1.8335
  823SOL     OW 3909   1.755   0.114   9.429  0.4432 -0.7268 -0.1510
  823SOL    HW1 3910   1.808   0.111   9.509  0.0261 -0.8413  0.1240
  823SOL    HW2 3911   1.795   0.184   9.377  1.2548 -1.2357 -0.2262
  824SOL     OW 3912   7.025   5.637   7.808  0.1416  0.0098  0.4356
  824SOL    HW1 3913   7.013   5.703   7.740 -1.5682 -1.0898 -0.3926
  824SOL    HW2 3914   7.116   5.649   7.837  0.6100  1.1429 -1.3366
  825SOL     OW 3915   5.297   0.070   8.742 -0.0834 -0.2860 -0.5181
  825SOL    HW1 3916   5.349  -0.010   8.737  1.2900  0.6133 -1.9352
  825SOL    HW2 3917   5.249   0.073   8.660 -0.1389  0.3155 -0.4731
  826SOL     OW 3918   1.975   1.960   8.082 -0.0990  0.3687 -0.4270
  826SOL    HW1 3919   1.895   1.929   8.126 -1.0875  2.0264 -0.9742
  826SOL    HW2 3920   1.954   1.953   7.989  0.5439  0.4469 -0.5768
  827SOL     OW 3921   7.635   0.858   2.374  0.6154  0.5285  0.1330
  827SOL    HW1 3922   7.719   0.875   2.332  1.4803  2.8495  2.5102
  827SOL    HW2 3923   7.657   0.804   2.450 -0.4138 -0.7147 -0.4166
  828SOL     OW 3924   1.001   5.068   4.090  0.5373 -0.2183  0.4235
  828SOL    HW1 3925   0.978   5.143   4.145  2.0571  1.8590 -1.5692
  828SOL    HW2 3926   0.964   5.090   4.004  0.8005 -1.9014 -0.1580
  829SOL     OW 3927   3.624   0.748  10.437 -0.0054 -0.0617 -0.0579
  829SOL    HW1 3928   3.543   0.721  10.481 -0.4816  0.6815 -0.4524
  829SOL    HW2 3929   3.618   0.709  10.350 -0.3108  0.6198 -0.3498
  830SOL     OW 3930   2.244   6.606   3.019  0.6580  0.4463  0.3094
  830SOL    HW1 3931   2.157   6.578   3.046  0.1961 -0.1759 -1.6655
  830SOL    HW2 3932   2.237   6.700   3.007 -0.2753  0.1751 -1.5489
  831SOL     OW 3933   0.984   5.322  10.322  0.7189  0.2664 -0.0777
  831SOL    HW1 3934   1.036   5.402  10.313 -1.1981  1.4181 -1.7903
  831SOL    HW2 3935   0.928   5.338  10.397 -0.5516  1.1496 -1.1584
  832SOL     OW 3936   7.859   3.923   0.850  0.6645  0.0102 -0.6009
  832SOL    HW1 3937   7.854   3.894   0.759 -1.5810 -1.2536 -0.1392
  832SOL    HW2 3938   7.885   4.015   0.844  1.7800 -0.3553 -2.4217
  833SOL     OW 3939   6.072   6.845  12.331 -0.1822  0.4867  0.1800
  833SOL    HW1 3940   6.098   6.907  12.399  1.4294  0.5183 -0.4025
  833SOL    HW2 3941   6.154   6.802  12.306 -1.0693 -0.9754 -0.3136
  834SOL     OW 3942   6.292   6.172   2.423 -0.0583  0.5989  0.2202
  834SOL    HW1 3943   6.321   6.135   2.507 -0.3965  0.2769  0.2015
  834SOL    HW2 3944   6.359   6.146   2.361 -0.3644 -0.1368  0.1765
  835SOL     OW 3945   5.035   7.105   5.753 -0.2141  0.1585 -0.4865
  835SOL    HW1 3946   4.958   7.154   5.784  0.5532 -0.3163  2.4642
  835SOL    HW2 3947   5.110   7.155   5.786  0.7117 -0.5225 -1.4940
  836SOL     OW 3948   7.246   3.554  11.945  0.2234 -0.0314 -0.6403
  836SOL    HW1 3949   7.284   3.599  12.021  0.6752  0.3707 -1.0976
  836SOL    HW2 3950   7.219   3.469  11.978  1.4171 -0.2830 -0.2737
  837SOL     OW 3951   5.494   0.711   2.240  0.4930  0.3115  0.0452
  837SOL    HW1 3952   5.534   0.660   2.311 -1.6229 -1.2517  0.2129
  837SOL    HW2 3953   5.452   0.785   2.284  0.9089  0.4813  0.1645
  838SOL     OW 3954   0.875   5.955   1.767 -0.0388  0.3036 -0.4503
  838SOL    HW1 3955   0.814   5.910   1.826 -2.3370  0.1100 -2.7609
  838SOL    HW2 3956   0.949   5.894   1.759 -0.6367 -0.6029  0.5714
  839SOL     OW 3957   3.608   2.701   9.348  0.0959  0.0568 -0.0053
  839SOL    HW1 3958   3.570   2.780   9.387 -1.7972 -1.0302  0.4933
  839SOL    HW2 3959   3.630   2.727   9.258 -2.4723  0.6486 -0.5338
  840SOL     OW 3960   5.384   2.582   4.559 -0.1758 -0.1788 -0.9058
  840SOL    HW1 3961   5.307   2.637   4.569 -0.8948 -0.8044 -2.5815
  840SOL    HW2 3962   5.415   2.567   4.648 -1.2952  1.0471 -0.2783
  841SOL     OW 3963   1.217   7.866  11.780  0.1396 -0.0458  0.4143
  841SOL    HW1 3964   1.227   7.952  11.819 -0.2500 -0.0040  0.4251
  841SOL    HW2 3965   1.260   7.806  11.842  2.5316  0.3668 -0.6965
  842SOL     OW 3966   6.009   5.053   4.365 -0.3307  0.6278  0.1400
  842SOL    HW1 3967   5.960   4.972   4.377  0.4936  0.0488 -0.3520
  842SOL    HW2 3968   6.100   5.026   4.355 -0.3190  1.3998 -2.4365
  843SOL     OW 3969   1.177   6.557   0.076  0.0331  0.1174 -0.1452
  843SOL    HW1 3970   1.152   6.465   0.090  0.1345  0.2900  1.2651
  843SOL    HW2 3971   1.093   6.603   0.067 -0.0270 -0.0300 -0.3664
  844SOL     OW 3972   7.245   2.700   3.985  0.0353 -0.4219  0.1426
  844SOL    HW1 3973   7.150   2.700   3.995 -0.1362 -4.1223  0.1691
  844SOL    HW2 3974   7.259   2.671   3.894  1.1057 -1.0805  0.5052
  845SOL     OW 3975   2.083   7.586   0.200  0.6406 -0.1349  0.1319
  845SOL    HW1 3976   2.029   7.661   0.225 -0.5571  0.0578 -2.6676
  845SOL    HW2 3977   2.040   7.511   0.241 -1.0978  0.1755 -1.0072
  846SOL     OW 3978   0.316   2.763   1.855 -0.0728  0.1507  0.1044
  846SOL    HW1 3979   0.265   2.810   1.789  0.3458  1.2437  0.5180
  846SOL    HW2 3980   0.344   2.832   1.916  0.1014 -0.7349  1.0520
  847SOL     OW 3981   0.719   6.203   5.691  0.0331 -0.1620 -0.2057
  847SOL    HW1 3982   0.677   6.260   5.756 -0.8306 -0.0847 -0.8122
  847SOL    HW2 3983   0.652   6.138   5.671  0.1637  0.0316 -1.2935
  848SOL     OW 3984   3.164   6.671   1.306 -0.1893  0.3975  0.0663
  848SOL    HW1 3985   3.175   6.759   1.343 -0.3449  0.4419  0.0075
  848SOL    HW2 3986   3.220   6.615   1.359 -0.7260  0.3908  0.6283
  849SOL     OW 3987   7.520   5.967   3.277 -0.1096 -0.3893 -0.2857
  849SOL    HW1 3988   7.578   5.894   3.253 -0.9066 -0.3301 -2.5968
  849SOL    HW2 3989   7.547   6.039   3.221 -0.1086  0.7730  1.1558
  850SOL     OW 3990   5.077   4.197  12.183 -0.0137 -0.0938  0.1461
  850SOL    HW1 3991   4.990   4.165  12.206  0.5901 -1.0796  1.1424
  850SOL    HW2 3992   5.064   4.290  12.163 -1.3257 -0.2903  0.0390
  851SOL     OW 3993   6.164   0.780   5.775 -0.4151 -0.5640  0.1724
  851SOL    HW1 3994   6.097   0.714   5.758 -1.4634  0.5404 -0.1172
  851SOL    HW2 3995   6.161   0.793   5.870 -0.3586 -0.7668  0.2025
  852SOL     OW 3996   0.857   3.534   3.768  0.2363  0.5765 -0.2467
  852SOL    HW1 3997   0.803   3.512   3.692 -2.5250  1.3056  1.3546
  852SOL    HW2 3998   0.842   3.462   3.829  1.9104  0.3174 -0.1129
  853SOL     OW 3999   4.044   1.244  12.125 -0.1824  0.1682  0.2400
  853SOL    HW1 4000   4.029   1.311  12.058  1.8164  0.1126 -0.3187
  853SOL    HW2 4001   4.061   1.164  12.075  1.7872  0.2253  0.7378
  854SOL     OW 4002   0.839   1.983   7.003  0.0558  0.0117  0.4490
  854SOL    HW1 4003   0.744   1.994   7.010  0.1459  1.7097 -0.3202
  854SOL    HW2 4004   0.851   1.919   6.933 -0.5214  0.6537 -0.2507
  855SOL     OW 4005   0.088   4.905   6.152  0.4751  0.4215  0.7853
  855SOL    HW1 4006   0.163   4.965   6.144  0.2322  0.6136 -0.2048
  855SOL    HW2 4007   0.110   4.831   6.096  0.3261  0.0485  1.2161
  856SOL     OW 4008   0.775   6.772   2.985 -0.3683 -0.2977  0.5895
  856SOL    HW1 4009   0.683   6.752   2.966  0.0347  0.1640 -2.1603
  856SOL    HW2 4010   0.801   6.703   3.047 -2.2891 -0.9966  0.7047
  857SOL     OW 4011   3.469   4.198   5.231  0.1512 -0.0397  0.1544
  857SOL    HW1 4012   3.399   4.140   5.203  1.7191 -1.2327 -1.5710
  857SOL    HW2 4013   3.483   4.257   5.158  1.6341 -0.5495 -0.0195
  858SOL     OW 4014   4.528   2.706   2.797  0.4103  0.4596  0.0409
  858SOL    HW1 4015   4.560   2.698   2.707  0.5469 -0.6475  0.1697
  858SOL    HW2 4016   4.459   2.640   2.804  2.0222 -1.1596  1.4235
  859SOL     OW 4017   7.773   5.143   9.023  0.5090  0.1054  0.2470
  859SOL    HW1 4018   7.750   5.150   8.931  0.5760  0.1946  0.2365
  859SOL    HW2 4019   7.867   5.128   9.023  0.4531 -0.2498  0.2886
  860SOL     OW 4020   6.681   1.162  11.020  0.1453  0.1771  0.0779
  860SOL    HW1 4021   6.598   1.185  10.978  0.2289 -0.2594 -0.3350
  860SOL    HW2 4022   6.669   1.187  11.112 -0.7908 -0.7209  0.2236
  861SOL     OW 4023   2.266   6.058   1.390 -0.1251  0.3912  0.4377
  861SOL    HW1 4024   2.225   6.004   1.458 -0.0415  0.3565  0.4611
  861SOL    HW2 4025   2.218   6.037   1.310 -1.3867  1.7056  0.7963
  862SOL     OW 4026   2.656   6.082   7.367  0.1939  0.2320  0.7980
  862SOL    HW1 4027   2.571   6.042   7.352  0.1944  0.6680 -0.4811
  862SOL    HW2 4028   2.640   6.176   7.361  0.8459  0.3056  0.0428
  863SOL     OW 4029   2.470   5.796   0.779  0.5189 -0.3822 -0.4979
  863SOL    HW1 4030   2.510   5.866   0.728  1.5639 -2.0218 -2.0744
  863SOL    HW2 4031   2.545   5.746   0.813 -0.1637  0.0527  1.8353
  864SOL     OW 4032   7.170   5.733   8.669 -0.5135 -0.0871  0.0751
  864SOL    HW1 4033   7.189   5.639   8.665 -1.4879 -0.2854 -0.1670
  864SOL    HW2 4034   7.228   5.766   8.738  0.1575 -0.7786 -0.1361
  865SOL     OW 4035   4.829   3.046   4.949 -0.3451 -0.1266  0.0668
  865SOL    HW1 4036   4.763   3.021   5.014 -0.8585 -0.4588 -0.5652
  865SOL    HW2 4037   4.846   3.139   4.965 -1.2177  0.0437  0.0156
  866SOL     OW 4038   4.025   2.012  12.273  0.4098  0.6796 -0.0832
  866SOL    HW1 4039   4.096   2.068  12.243  2.2773 -0.4270  1.9523
  866SOL    HW2 4040   4.067   1.931  12.300 -1.7083 -0.2577  0.6823
  867SOL     OW 4041   3.586   0.387   6.782 -0.2942  0.1640 -0.1315
  867SOL    HW1 4042   3.514   0.418   6.728  2.2586 -0.1860 -4.1793
  867SOL    HW2 4043   3.662   0.438   6.754  1.7064 -1.6180  1.5550
  868SOL     OW 4044   0.556   3.010   0.815 -0.1992 -0.3533 -0.3507
  868SOL    HW1 4045   0.526   3.100   0.808  0.9070 -0.0095 -0.8963
  868SOL    HW2 4046   0.611   2.996   0.738  0.4540 -1.1699  0.2380
  869SOL     OW 4047   6.988   1.538   6.032  0.0819  0.1853  0.1242
  869SOL    HW1 4048   7.044   1.474   5.988 -0.0044  0.1328  0.0883
  869SOL    HW2 4049   6.971   1.605   5.966 -0.3485 -0.0806 -0.0439
  870SOL     OW 4050   1.153   7.569   2.567  0.4151  0.2078  0.1060
  870SOL    HW1 4051   1.162   7.521   2.485  0.5891 -0.5562  0.5589
  870SOL    HW2 4052   1.230   7.543   2.619  0.2537  0.6003  0.5530
  871SOL     OW 4053   0.405   0.045   9.813 -0.6277 -0.2557  0.1825
  871SOL    HW1 4054   0.435   0.066   9.901 -0.9159  1.0825 -0.0264
  871SOL    HW2 4055   0.380  -0.048   9.818 -0.9323 -0.1156  1.5826
  872SOL     OW 4056   7.320   3.568   9.461  0.6235  0.2283 -0.3737
  872SOL    HW1 4057   7.302   3.477   9.439 -0.3487  0.3406 -0.0925
  872SOL    HW2 4058   7.316   3.614   9.377  0.4937  0.1025 -0.4372
  873SOL     OW 4059   2.764   3.199   1.282 -0.4040 -0.5865 -0.0047
  873SOL    HW1 4060   2.759   3.139   1.357  0.7669 -0.5198  0.1514
  873SOL    HW2 4061   2.687   3.178   1.229 -1.5204 -0.3190  1.4338
  874SOL     OW 4062   0.038   7.863   2.200 -0.5432 -0.2876  0.4627
  874SOL    HW1 4063   0.131   7.879   2.185 -0.6033  0.6244  1.0018
  874SOL    HW2 4064   0.016   7.791   2.140  0.4781 -0.4487  0.2617
  875SOL     OW 4065   6.626   3.779  10.129  0.3285  0.1846 -0.0060
  875SOL    HW1 4066   6.660   3.855  10.176 -0.0633  0.3061  0.0855
  875SOL    HW2 4067   6.531   3.789  10.133  0.2767 -0.2878 -0.0319
  876SOL     OW 4068   3.041   2.554   3.051  0.2573  0.0564 -0.1081
  876SOL    HW1 4069   3.025   2.555   2.957 -2.2160  1.2094  0.2429
  876SOL    HW2 4070   3.022   2.463   3.077  1.9436 -0.5355 -0.8025
  877SOL     OW 4071   3.319   0.562   1.808  0.5283  0.1063 -0.3270
  877SOL    HW1 4072   3.402   0.540   1.851 -1.0229 -3.1763  1.4114
  877SOL    HW2 4073   3.301   0.486   1.752 -1.3857  0.6704 -0.5324
  878SOL     OW 4074   5.802   6.831   9.900 -0.2482  0.4806 -0.3995
  878SOL    HW1 4075   5.727   6.784   9.938 -1.6815  1.7224 -1.6075
  878SOL    HW2 4076   5.778   6.923   9.904  1.1026  0.8956 -1.0915
  879SOL     OW 4077   5.849   5.723   2.826 -0.4671  0.5513  0.2387
  879SOL    HW1 4078   5.819   5.779   2.754  1.8077 -0.1635 -1.3719
  879SOL    HW2 4079   5.777   5.662   2.839 -0.9663  0.7052 -1.4539
  880SOL     OW 4080   3.916   1.859   9.824 -0.3094  0.5038 -0.5316
  880SOL    HW1 4081   3.951   1.917   9.892 -0.9238 -0.0280  0.2586
  880SOL    HW2 4082   3.832   1.829   9.859  0.6126 -2.0119 -0.2370
  881SOL     OW 4083   4.975   2.427   3.395  0.2411 -0.2975 -0.5057
  881SOL    HW1 4084   4.973   2.337   3.428 -0.3637 -0.1705 -0.1763
  881SOL    HW2 4085   4.952   2.480   3.471  1.0330  0.1709 -0.5897
  882SOL     OW 4086   2.933   0.585   3.586 -0.0092  0.6961 -0.4530
  882SOL    HW1 4087   2.959   0.572   3.677  0.6029  0.6075 -0.6410
  882SOL    HW2 4088   2.942   0.679   3.572 -0.8596  0.8283 -0.1980
  883SOL     OW 4089   2.947   1.568   5.135 -0.0315 -0.1679 -0.1312
  883SOL    HW1 4090   2.989   1.641   5.090  0.4352 -0.1172  0.3814
  883SOL    HW2 4091   2.853   1.582   5.122  0.0888 -0.0681 -0.9483
  884SOL     OW 4092   3.707   2.367   5.046 -0.4893  0.4238 -0.5911
  884SOL    HW1 4093   3.717   2.310   5.123  2.3930  1.4089 -0.1241
  884SOL    HW2 4094   3.709   2.456   5.081 -2.3507  0.9173 -1.5694
  885SOL     OW 4095   1.418   4.371   6.827  0.3570  0.0000 -0.5294
  885SOL    HW1 4096   1.440   4.463   6.838  1.1648 -0.1017 -1.1741
  885SOL    HW2 4097   1.335   4.360   6.874  0.2208  1.0642 -0.4960
  886SOL     OW 4098   1.103   1.240   9.136 -0.2545  0.3552 -0.6332
  886SOL    HW1 4099   1.155   1.188   9.074  0.0597  0.4520 -0.4529
  886SOL    HW2 4100   1.015   1.204   9.129 -0.4684  1.0593 -1.9319
  887SOL     OW 4101   3.180   7.186   9.289 -0.0227  0.6189  0.1286
  887SOL    HW1 4102   3.197   7.162   9.380  0.1463 -1.4395 -0.3953
  887SOL    HW2 4103   3.087   7.211   9.288  0.1152  1.2182  0.9410
  888SOL     OW 4104   7.213   0.948   7.155  0.2799 -0.0316 -0.5691
  888SOL    HW1 4105   7.154   1.023   7.164 -0.5962 -0.7555 -0.1652
  888SOL    HW2 4106   7.156   0.871   7.161  1.4211 -0.8028  1.5687
  889SOL     OW 4107   3.031   1.825   3.846 -0.8962 -0.0892 -0.2462
  889SOL    HW1 4108   2.985   1.844   3.764 -0.2107 -1.6402 -1.0316
  889SOL    HW2 4109   2.962   1.830   3.913 -1.5931  0.6032 -0.9875
  890SOL     OW 4110   6.854   5.272   2.679  0.4412 -0.1286 -0.3617
  890SOL    HW1 4111   6.887   5.211   2.746  1.0091  0.7104  0.1335
  890SOL    HW2 4112   6.854   5.357   2.722  0.7847  0.4222 -1.4291
  891SOL     OW 4113   5.148   3.455   5.011 -0.0764 -0.2668 -0.0152
  891SOL    HW1 4114   5.168   3.472   5.103  1.2437 -0.6129 -0.2145
  891SOL    HW2 4115   5.145   3.542   4.971  0.1641 -0.1588  0.2006
  892SOL     OW 4116   5.606   5.238   8.535  0.0755  0.2276  1.0623
  892SOL    HW1 4117   5.657   5.259   8.614  1.7427 -1.0250  0.3815
  892SOL    HW2 4118   5.656   5.278   8.464 -0.4992 -0.0900  0.4787
  893SOL     OW 4119   5.563   3.127   7.509  0.3358 -0.3201 -0.4118
  893SOL    HW1 4120   5.502   3.192   7.472  1.1294  0.2198 -0.8078
  893SOL    HW2 4121   5.561   3.055   7.446  2.4816  1.0323 -2.2122
  894SOL     OW 4122   1.587   3.329  10.627 -0.4467 -0.3846 -0.1783
  894SOL    HW1 4123   1.544   3.338  10.542 -0.4871  0.6672 -0.0585
  894SOL    HW2 4124   1.548   3.398  10.681  0.5618 -0.1614  0.2784
  895SOL     OW 4125   3.624   1.373  10.216  0.0709  0.6060 -0.0105
  895SOL    HW1 4126   3.612   1.402  10.306 -0.7446 -1.4398  0.5916
  895SOL    HW2 4127   3.550   1.413  10.169 -0.7211 -0.0139  0.6766
  896SOL     OW 4128   1.827   0.295   8.579 -0.0152  0.6896  0.4806
  896SOL    HW1 4129   1.875   0.220   8.613 -2.4959 -0.8772  0.7685
  896SOL    HW2 4130   1.830   0.285   8.484  0.7458  0.9479  0.4774
  897SOL     OW 4131   5.424   7.774   1.256  0.6020  0.2164  0.3055
  897SOL    HW1 4132   5.478   7.839   1.300 -0.2686  2.1420 -1.2736
  897SOL    HW2 4133   5.334   7.802   1.273  0.2004 -0.6904 -0.2389
  898SOL     OW 4134   2.388   2.753  11.838  0.4020 -0.4112  0.6141
  898SOL    HW1 4135   2.350   2.668  11.858 -0.2678 -0.3947 -0.4793
  898SOL    HW2 4136   2.367   2.808  11.913 -0.4840 -0.7968  0.6540
  899SOL     OW 4137   7.759   0.616  11.134 -0.3688  0.5671 -0.7448
  899SOL    HW1 4138   7.730   0.556  11.065 -1.6591 -0.3284  0.5022
  899SOL    HW2 4139   7.684   0.622  11.193  0.8584  0.8824  0.8609
  900SOL     OW 4140   0.432   7.715  11.249 -0.1904 -0.1949  0.2880
  900SOL    HW1 4141   0.513   7.712  11.197 -0.6350 -0.4414 -0.3927
  900SOL    HW2 4142   0.419   7.808  11.267 -0.0130 -0.1129 -0.0006
  901SOL     OW 4143   2.384   5.092   3.208 -0.7444  0.1552  0.0626
  901SOL    HW1 4144   2.467   5.098   3.257 -1.2229 -1.0044  1.0658
  901SOL    HW2 4145   2.379   5.001   3.181 -2.0159  0.0637  0.5835
  902SOL     OW 4146   4.978   7.041  10.750  0.1895  0.0526 -0.2426
  902SOL    HW1 4147   5.015   7.098  10.683  1.1854 -0.6585 -0.3145
  902SOL    HW2 4148   5.003   6.952  10.723 -0.8781 -0.3848  0.1475
  903SOL     OW 4149   4.566   1.536  10.781  0.3603 -0.3632  0.2626
  903SOL    HW1 4150   4.571   1.443  10.761 -0.3867 -0.6303  1.2292
  903SOL    HW2 4151   4.629   1.548  10.852  0.7104 -0.0534 -0.0950
  904SOL     OW 4152   0.043   6.486  11.596  0.2871  0.3497 -0.2148
  904SOL    HW1 4153   0.120   6.514  11.546 -0.0588  0.3559 -0.7579
  904SOL    HW2 4154   0.072   6.485  11.687  0.3874  2.3073 -0.1770
  905SOL     OW 4155   1.032   2.278   1.443 -0.2391 -0.6792 -0.4382
  905SOL    HW1 4156   0.954   2.224   1.447 -1.2080  0.7355  1.8743
  905SOL    HW2 4157   1.062   2.285   1.534  1.0943  0.8665 -0.9311
  906SOL     OW 4158   4.058   4.230   1.223  0.3420 -0.4335  0.3210
  906SOL    HW1 4159   4.065   4.206   1.131 -0.2184 -0.6167  0.3249
  906SOL    HW2 4160   4.147   4.219   1.257  0.7821  0.6746 -0.4354
  907SOL     OW 4161   2.003   1.555   8.968 -0.1899  0.3502 -0.7572
  907SOL    HW1 4162   2.011   1.486   8.902 -0.9628  0.6194 -1.1422
  907SOL    HW2 4163   2.019   1.636   8.920  0.2921  0.4770 -0.3902
  908SOL     OW 4164   2.367   3.292   6.583  0.0414  0.2743  0.2079
  908SOL    HW1 4165   2.382   3.345   6.661 -2.0731 -0.0230  0.8846
  908SOL    HW2 4166   2.429   3.325   6.518  0.2265  2.1293  1.2799
  909SOL     OW 4167   2.057   2.989   9.530 -0.2705  0.2481 -0.6244
  909SOL    HW1 4168   2.054   2.987   9.434  0.5889 -2.0714 -0.6486
  909SOL    HW2 4169   1.989   2.928   9.558  0.3630 -0.0959  0.2075
  910SOL     OW 4170   7.417   4.214   9.932 -0.2977 -0.0224  0.1032
  910SOL    HW1 4171   7.366   4.250  10.004 -2.0003 -2.3940  0.2151
  910SOL    HW2 4172   7.508   4.217   9.962 -0.6228  1.9005  1.0089
  911SOL     OW 4173   1.513   0.884   9.229 -0.0395 -0.0053  0.3719
  911SOL    HW1 4174   1.469   0.864   9.146  0.4985 -1.4136  0.4070
  911SOL    HW2 4175   1.538   0.799   9.264  0.3091  0.6145  1.6846
  912SOL     OW 4176   3.732   5.159   1.642  0.0755 -0.3627 -0.8665
  912SOL    HW1 4177   3.678   5.114   1.707  0.6412  0.1498 -0.0174
  912SOL    HW2 4178   3.766   5.089   1.587  1.0327 -1.0254  0.4966
  913SOL     OW 4179   3.078   6.243  12.137  0.4260 -0.0475  0.5536
  913SOL    HW1 4180   3.085   6.170  12.199  0.0749  0.5888  1.3542
  913SOL    HW2 4181   3.034   6.312  12.186  1.3055  0.9271 -0.0033
  914SOL     OW 4182   4.081   2.801   7.812 -0.2675  0.1033 -0.0273
  914SOL    HW1 4183   4.079   2.713   7.851  0.4427  0.8548  1.8012
  914SOL    HW2 4184   4.034   2.856   7.875  0.9436  1.3756 -0.2025
  915SOL     OW 4185   2.307   5.883   4.208 -0.7212 -0.4248  0.4432
  915SOL    HW1 4186   2.293   5.816   4.140  0.7063 -0.9465  0.6291
  915SOL    HW2 4187   2.389   5.926   4.183 -0.5674 -0.1146  1.4364
  916SOL     OW 4188   2.384   6.047  12.322 -0.1617 -0.0872  0.2049
  916SOL    HW1 4189   2.354   6.122  12.373  0.9100  2.7520 -2.9653
  916SOL    HW2 4190   2.303   6.003  12.296 -0.9606  1.1312  0.5238
  917SOL     OW 4191   0.187   6.181   8.129 -0.0170  0.2208  0.4474
  917SOL    HW1 4192   0.176   6.155   8.037 -0.1781 -0.7643  0.7278
  917SOL    HW2 4193   0.281   6.197   8.138  0.2143 -1.0245  0.4290
  918SOL     OW 4194   7.853   0.184   5.332  0.0938  0.0731  0.0230
  918SOL    HW1 4195   7.862   0.105   5.279 -0.9756 -0.0333 -0.0029
  918SOL    HW2 4196   7.943   0.201   5.362  0.6773 -0.0285 -1.5487
  919SOL     OW 4197   3.765   3.509   5.141 -0.1099  0.1044 -0.2096
  919SOL    HW1 4198   3.792   3.424   5.107  0.9574  0.8927 -1.4155
  919SOL    HW2 4199   3.842   3.541   5.190  0.2787  1.2391 -1.4908
  920SOL     OW 4200   7.425   6.863   8.160 -0.0258 -0.6293 -0.5739
  920SOL    HW1 4201   7.395   6.775   8.184 -1.1803  0.2614  1.5029
  920SOL    HW2 4202   7.504   6.848   8.109 -0.0169 -2.8712 -0.0101
  921SOL     OW 4203   4.853   0.091  11.712  0.4611 -0.1960 -0.4590
  921SOL    HW1 4204   4.814   0.152  11.775  2.3372  1.2945 -0.6760
  921SOL    HW2 4205   4.882   0.017  11.767 -0.4363 -0.2125  0.0177
  922SOL     OW 4206   4.967   5.335  12.031 -0.2269 -0.1963 -0.1415
  922SOL    HW1 4207   4.934   5.390  12.102  1.2668  1.1559 -0.4309
  922SOL    HW2 4208   4.982   5.395  11.959  4.4181 -0.2139  0.4988
  923SOL     OW 4209   7.143   3.165   4.709  0.8897 -0.3572  0.0904
  923SOL    HW1 4210   7.163   3.243   4.658  2.0382  0.6333  1.9243
  923SOL    HW2 4211   7.219   3.155   4.767 -0.7344 -0.7994  2.2776
  924SOL     OW 4212   0.291   5.958   9.872 -0.5085 -0.2158  0.0573
  924SOL    HW1 4213   0.305   5.874   9.828  1.4616 -2.1089  3.7621
  924SOL    HW2 4214   0.380   5.989   9.890 -1.2347  1.9059  0.1907
  925SOL     OW 4215   6.539   7.767   5.418 -0.3344 -0.6417 -0.1400
  925SOL    HW1 4216   6.622   7.787   5.375 -0.3977 -1.3021 -0.5950
  925SOL    HW2 4217   6.561   7.758   5.510 -0.1158  0.3538 -0.0825
  926SOL     OW 4218   4.896   0.747   3.630  0.2679  0.3025  0.1716
  926SOL    HW1 4219   4.910   0.674   3.569  0.3700  0.5091 -0.0541
  926SOL    HW2 4220   4.806   0.775   3.612 -0.3204 -0.7473  1.3217
  927SOL     OW 4221   3.187   1.349   9.528  0.0908  0.2761 -0.1104
  927SOL    HW1 4222   3.274   1.363   9.566  0.0452 -0.0287  0.0986
  927SOL    HW2 4223   3.128   1.401   9.582  0.0347 -0.1092  0.2008
  928SOL     OW 4224   5.088   7.715   2.495  0.1254 -0.3678 -0.3155
  928SOL    HW1 4225   5.083   7.689   2.403 -0.7281  1.3705 -0.8020
  928SOL    HW2 4226   5.076   7.810   2.494  1.0768 -0.1809  1.5204
  929SOL     OW 4227   3.350   4.285   0.358 -0.3649 -0.4144 -0.3227
  929SOL    HW1 4228   3.412   4.304   0.429 -0.9825 -1.7551  0.6364
  929SOL    HW2 4229   3.281   4.350   0.368 -0.8921 -1.1195  0.9190
  930SOL     OW 4230   7.652   5.475   5.875 -0.4667 -0.0386 -0.1357
  930SOL    HW1 4231   7.690   5.468   5.788 -3.1006  0.2055 -1.4048
  930SOL    HW2 4232   7.682   5.397   5.921 -0.7013 -1.2923 -1.9911
  931SOL     OW 4233   0.180   5.368   9.296 -0.6983  0.1414  0.3687
  931SOL    HW1 4234   0.133   5.388   9.377  0.9628  1.7122  1.0064
  931SOL    HW2 4235   0.132   5.414   9.228  0.2022  2.2816  1.1038
  932SOL     OW 4236   3.850   6.684   3.184 -0.0555  0.4122  0.3787
  932SOL    HW1 4237   3.791   6.634   3.240  0.2750 -1.0839 -0.5472
  932SOL    HW2 4238   3.891   6.619   3.127  2.6148  1.3466  1.0530
  933SOL     OW 4239   5.333   7.540   3.224  0.3964 -0.4998 -0.1342
  933SOL    HW1 4240   5.287   7.609   3.176 -1.6765 -1.0510  0.9472
  933SOL    HW2 4241   5.374   7.487   3.155 -1.3209 -0.4643 -1.2563
  934SOL     OW 4242   5.840   3.074   1.134 -0.1696 -0.2137  0.5121
  934SOL    HW1 4243   5.841   3.169   1.140  1.4857 -0.2340  1.1493
  934SOL    HW2 4244   5.885   3.054   1.051 -0.2038 -0.4476  0.5478
  935SOL     OW 4245   1.850   2.690   0.767  0.0811  0.0370 -0.2889
  935SOL    HW1 4246   1.933   2.734   0.749  0.6001 -0.4121  0.9269
  935SOL    HW2 4247   1.785   2.760   0.767  0.8975  0.8662  1.6654
  936SOL     OW 4248   2.296   3.616   3.849  0.1894 -0.0287  0.0845
  936SOL    HW1 4249   2.270   3.604   3.941 -0.0749  1.1199  0.1751
  936SOL    HW2 4250   2.213   3.622   3.802  0.3121 -1.7368 -0.4149
  937SOL     OW 4251   2.639   5.548   4.296  0.4507 -0.3356  0.1299
  937SOL    HW1 4252   2.655   5.642   4.292 -0.3147 -0.1967  0.0667
  937SOL    HW2 4253   2.564   5.539   4.355  0.4665 -0.8935  0.0710
  938SOL     OW 4254   5.026   2.406  11.171 -0.1163 -0.8038 -0.3461
  938SOL    HW1 4255   4.942   2.360  11.179 -0.9602  0.7493  0.2704
  938SOL    HW2 4256   5.012   2.488  11.218  1.8891 -0.6633  0.0759
  939SOL     OW 4257   3.505   6.564   7.066  0.0446  0.2792 -0.2339
  939SOL    HW1 4258   3.470   6.486   7.110  0.1008  0.7706  0.7216
  939SOL    HW2 4259   3.475   6.556   6.975  0.9866 -1.4087 -0.4375
  940SOL     OW 4260   2.452   0.594   1.565 -0.2430 -0.2242 -0.0345
  940SOL    HW1 4261   2.479   0.620   1.653 -1.1677 -2.4461  0.9847
  940SOL    HW2 4262   2.514   0.526   1.540 -0.3589 -0.0396 -0.8503
  941SOL     OW 4263   2.747   0.229   8.547 -0.1349  0.2998  0.7490
  941SOL    HW1 4264   2.829   0.278   8.547 -0.8228  1.6885 -2.3386
  941SOL    HW2 4265   2.680   0.296   8.560 -0.9428 -0.2442 -0.4534
  942SOL     OW 4266   2.865   6.967   2.931 -0.7949  0.4627 -0.3928
  942SOL    HW1 4267   2.927   7.023   2.977 -0.1119  1.2976 -2.2054
  942SOL    HW2 4268   2.894   6.878   2.951  0.3177  0.8302 -0.2865
  943SOL     OW 4269   7.950   1.194   2.030 -0.4781  0.1725 -0.4041
  943SOL    HW1 4270   7.925   1.280   1.996  0.2065  0.7058  0.3980
  943SOL    HW2 4271   8.045   1.189   2.016 -0.2370  0.2488  1.0308
  944SOL     OW 4272   6.061   2.704  10.488 -0.0465  0.0762  0.0625
  944SOL    HW1 4273   6.104   2.630  10.446 -0.3180 -0.4774  0.7310
  944SOL    HW2 4274   5.972   2.674  10.505 -0.2990  0.7266 -0.0885
  945SOL     OW 4275   5.443   3.464   1.665 -0.7031  0.3349  0.0207
  945SOL    HW1 4276   5.482   3.518   1.733 -0.1139  0.5012 -0.4454
  945SOL    HW2 4277   5.355   3.444   1.698 -0.9950  1.6928  0.1384
  946SOL     OW 4278   2.218   2.128   5.909  0.4075  0.1498  0.3585
  946SOL    HW1 4279   2.135   2.112   5.954 -1.4154 -0.4170 -2.8891
  946SOL    HW2 4280   2.277   2.060   5.941 -1.9063 -2.5100 -0.6413
  947SOL     OW 4281   3.157   0.292   0.905  0.2454 -0.4271  0.0068
  947SOL    HW1 4282   3.162   0.198   0.885 -2.2026 -0.3867 -1.1069
  947SOL    HW2 4283   3.218   0.333   0.843  0.0741 -1.1411 -0.6487
  948SOL     OW 4284   5.451   2.665   0.471 -0.4241  0.6333 -0.3731
  948SOL    HW1 4285   5.429   2.719   0.395 -0.0857  0.7624 -0.3845
  948SOL    HW2 4286   5.463   2.728   0.542  3.1599  0.9833 -1.0802
  949SOL     OW 4287   3.590   4.453   8.447  0.1224  0.5526 -0.6358
  949SOL    HW1 4288   3.510   4.461   8.397  0.5555  0.9499 -1.2786
  949SOL    HW2 4289   3.581   4.518   8.517 -1.0293 -0.8583  0.6000
  950SOL     OW 4290   2.911   2.047   4.294  0.0226 -0.5757 -0.0148
  950SOL    HW1 4291   2.983   2.109   4.286 -0.2566 -0.4046 -1.2872
  950SOL    HW2 4292   2.904   2.032   4.389  2.3547 -1.3579  0.0953
  951SOL     OW 4293   0.638   6.883   6.950 -0.0368  0.0293 -0.0410
  951SOL    HW1 4294   0.702   6.829   6.998 -1.0911 -0.5722  0.7281
  951SOL    HW2 4295   0.664   6.973   6.969  0.9849 -0.1891 -0.2987
  952SOL     OW 4296   1.980   5.058   2.653  0.1609 -0.9048 -0.2381
  952SOL    HW1 4297   1.977   5.149   2.682  0.8547 -0.7751 -0.5615
  952SOL    HW2 4298   1.891   5.039   2.624 -0.2122 -0.6142  0.6737
  953SOL     OW 4299   2.311   7.502  11.756  0.0217 -0.0399  0.0960
  953SOL    HW1 4300   2.270   7.451  11.826  2.0992 -1.8698  0.0716
  953SOL    HW2 4301   2.275   7.465  11.675 -1.1396  0.9778  0.1171
  954SOL     OW 4302   7.377   6.940  10.103 -0.6028  0.2557  0.3977
  954SOL    HW1 4303   7.428   6.924  10.182 -1.6883 -2.3632  0.6588
  954SOL    HW2 4304   7.291   6.905  10.122 -0.8767 -0.5416 -1.9643
  955SOL     OW 4305   5.570   3.751   4.033  0.5378  0.1662  0.4857
  955SOL    HW1 4306   5.518   3.806   3.973  1.4214  1.8510  1.1807
  955SOL    HW2 4307   5.506   3.693   4.074 -0.0372 -1.4481 -2.4408
  956SOL     OW 4308   3.997   0.274   8.714  0.3749  0.1108  0.0497
  956SOL    HW1 4309   4.060   0.315   8.773  0.2022  0.2585  0.1323
  956SOL    HW2 4310   4.043   0.267   8.630 -0.9179  4.2985 -1.2253
  957SOL     OW 4311   7.844   6.650   4.829 -0.0813  0.1501 -0.3912
  957SOL    HW1 4312   7.916   6.711   4.814 -0.5354  0.9846  0.6665
  957SOL    HW2 4313   7.808   6.677   4.913 -1.1452 -0.7387 -0.5485
  958SOL     OW 4314   4.586   4.273   2.187  0.5386 -0.9582  0.2291
  958SOL    HW1 4315   4.667   4.275   2.137  0.6269  2.7969  0.2465
  958SOL    HW2 4316   4.518   4.295   2.124  0.2939  1.0861  1.1286
  959SOL     OW 4317   3.790   1.739   1.572  0.0296  0.1659 -0.1672
  959SOL    HW1 4318   3.754   1.758   1.659 -0.0110 -0.2708 -0.0827
  959SOL    HW2 4319   3.819   1.823   1.538 -0.6676  0.4569 -0.0517
  960SOL     OW 4320   3.211   2.318   7.340  0.0890 -0.1854 -0.4890
  960SOL    HW1 4321   3.180   2.335   7.429 -1.1630 -0.0030 -0.9413
  960SOL    HW2 4322   3.182   2.229   7.320 -2.8939  0.9673 -1.9686
  961SOL     OW 4323   7.646   1.004   1.434  0.2035  0.2166  0.5006
  961SOL    HW1 4324   7.634   1.012   1.529  0.3454 -1.3061  0.6684
  961SOL    HW2 4325   7.741   1.014   1.422  0.3132 -0.5780  0.6460
  962SOL     OW 4326   6.312   7.772   8.032  0.8918 -0.0700 -0.4712
  962SOL    HW1 4327   6.299   7.677   8.028 -0.8335  0.1079  0.0310
  962SOL    HW2 4328   6.230   7.809   8.001  1.2616  1.2591  0.0458
  963SOL     OW 4329   0.284   6.267   9.143 -0.6370 -0.7039  0.6995
  963SOL    HW1 4330   0.236   6.350   9.136 -0.4461 -0.5145  1.5793
  963SOL    HW2 4331   0.216   6.200   9.143 -1.0351 -0.3808  3.2444
  964SOL     OW 4332   0.203   6.057  10.506 -0.5576 -0.5020  0.7444
  964SOL    HW1 4333   0.152   6.086  10.582 -1.2151  0.6361 -0.0948
  964SOL    HW2 4334   0.210   6.135  10.451 -0.4371 -1.3943 -0.5501
  965SOL     OW 4335   0.310   7.676   4.474  0.5616 -0.1512  0.1337
  965SOL    HW1 4336   0.291   7.696   4.565  1.2165  2.1276 -0.1468
  965SOL    HW2 4337   0.276   7.752   4.425  1.8456 -0.4309 -1.2914
  966SOL     OW 4338   7.871   4.629   8.740 -0.1645  0.6174 -0.3532
  966SOL    HW1 4339   7.855   4.691   8.812 -0.5771 -0.5616  0.6033
  966SOL    HW2 4340   7.827   4.669   8.665 -2.4928  0.3972  0.7957
  967SOL     OW 4341   2.227   7.732  10.453  0.6715 -0.2313 -0.3502
  967SOL    HW1 4342   2.183   7.817  10.467  1.8737  0.2392  0.7936
  967SOL    HW2 4343   2.166   7.668  10.487 -0.0037  0.2214 -0.6764
  968SOL     OW 4344   4.389   0.455   2.633  0.0626 -0.6324  0.2165
  968SOL    HW1 4345   4.336   0.413   2.700 -0.6072 -0.1343  0.0118
  968SOL    HW2 4346   4.418   0.383   2.577  0.5843 -1.0404  1.0093
  969SOL     OW 4347   4.662   1.290   1.108  0.0254  0.3483  0.1083
  969SOL    HW1 4348   4.653   1.199   1.136  2.3750 -0.3681 -1.2116
  969SOL    HW2 4349   4.688   1.285   1.016  0.1590  2.3673 -0.0120
  970SOL     OW 4350   4.826   3.117   2.465  0.1608 -0.0390 -0.5472
  970SOL    HW1 4351   4.741   3.105   2.425  0.2540  1.9776 -1.5051
  970SOL    HW2 4352   4.807   3.149   2.554 -0.0938  0.4475 -0.7744
  971SOL     OW 4353   5.324   1.532   0.442 -0.1332  0.2190 -0.0377
  971SOL    HW1 4354   5.299   1.453   0.393 -0.2644 -0.7974  1.6168
  971SOL    HW2 4355   5.260   1.598   0.413 -0.9103 -0.6623 -0.3999
  972SOL     OW 4356   6.342   6.046   5.479 -0.6064  0.3442 -0.5936
  972SOL    HW1 4357   6.323   6.003   5.563 -1.9468  0.3794 -0.8685
  972SOL    HW2 4358   6.273   6.111   5.468  0.0016  0.8807 -1.3683
  973SOL     OW 4359   4.480   5.842   1.876 -0.1261  0.3236  0.0547
  973SOL    HW1 4360   4.453   5.798   1.957  0.3116 -0.8087 -0.3873
  973SOL    HW2 4361   4.559   5.891   1.900 -0.1733  0.2442  0.3797
  974SOL     OW 4362   0.011   3.465   0.278 -0.6377  0.6543  0.1640
  974SOL    HW1 4363   0.075   3.419   0.332 -0.2077 -0.2274 -1.0544
  974SOL    HW2 4364  -0.072   3.422   0.296 -0.0118 -1.6821 -2.0471
  975SOL     OW 4365   1.138   4.221  11.586  0.1217  0.3912 -0.0244
  975SOL    HW1 4366   1.115   4.258  11.671  1.2169  1.2166 -0.0732
  975SOL    HW2 4367   1.230   4.241  11.575  0.4312 -1.2030 -0.6583
  976SOL     OW 4368   1.422   2.474   4.344  0.2001  0.1441 -0.0589
  976SOL    HW1 4369   1.457   2.396   4.385 -1.0595 -0.5039 -0.1647
  976SOL    HW2 4370   1.337   2.447   4.308  0.3531  1.1908 -1.3214
  977SOL     OW 4371   1.350   4.991  12.195 -0.0848 -0.1762  0.0807
  977SOL    HW1 4372   1.427   4.945  12.162 -0.8445  0.0003 -2.0814
  977SOL    HW2 4373   1.359   5.080  12.162 -0.1353  0.4637  1.6973
  978SOL     OW 4374   5.718   3.592  10.608  0.1201 -0.1466  0.3317
  978SOL    HW1 4375   5.751   3.591  10.519  2.0464 -0.2543  1.0108
  978SOL    HW2 4376   5.783   3.544  10.659 -1.4897 -1.0959  1.6353
  979SOL     OW 4377   7.136   4.753   1.210 -0.3206  0.8139  0.7127
  979SOL    HW1 4378   7.048   4.750   1.248 -0.2768  0.5770  0.8002
  979SOL    HW2 4379   7.150   4.845   1.188 -1.0229  0.6881 -0.3280
  980SOL     OW 4380   2.536   5.913   7.067 -0.2679  0.6006  0.0151
  980SOL    HW1 4381   2.487   5.921   7.149 -0.0826 -0.1473  0.2065
  980SOL    HW2 4382   2.619   5.958   7.085 -0.0931  0.1504  0.3544
  981SOL     OW 4383   7.297   3.741   7.799  0.1180 -0.1713  0.1069
  981SOL    HW1 4384   7.205   3.717   7.807  0.1521 -1.4557 -2.4493
  981SOL    HW2 4385   7.297   3.829   7.762 -0.0440  0.2778  1.1416
  982SOL     OW 4386   6.294   2.621   4.248 -0.3126 -0.1487  0.8957
  982SOL    HW1 4387   6.342   2.613   4.166  2.0503  2.4150  1.8759
  982SOL    HW2 4388   6.204   2.639   4.221  0.5484  1.4051 -1.2083
  983SOL     OW 4389   7.869   4.959   8.658  0.0135 -0.1248 -0.0471
  983SOL    HW1 4390   7.801   4.899   8.689  0.6614 -1.3826 -0.9488
  983SOL    HW2 4391   7.823   5.041   8.640 -0.6224  0.2160  2.7548
  984SOL     OW 4392   0.070   5.671   5.114 -0.4435 -0.0298  0.2819
  984SOL    HW1 4393  -0.020   5.647   5.138 -1.0481  1.4576 -0.3226
  984SOL    HW2 4394   0.072   5.662   5.019  0.0812 -0.1702  0.3059
  985SOL     OW 4395   5.450   3.011   2.792 -0.1202  0.2815  0.3483
  985SOL    HW1 4396   5.493   3.061   2.861 -0.8460 -1.0849  1.8772
  985SOL    HW2 4397   5.369   3.060   2.774  0.3000  0.8982  0.1108
  986SOL     OW 4398   5.564   3.273  10.456 -0.4680 -0.0727  0.1773
  986SOL    HW1 4399   5.490   3.259  10.396 -1.4488  1.0235  1.0635
  986SOL    HW2 4400   5.629   3.320  10.404 -1.2802  0.8113 -0.0882
  987SOL     OW 4401   1.466   2.359  10.831 -0.1215 -0.3751 -0.3727
  987SOL    HW1 4402   1.391   2.399  10.788  0.3462  1.3864  0.3383
  987SOL    HW2 4403   1.542   2.395  10.786  0.3239 -0.6919  0.1047
  988SOL     OW 4404   6.306   0.496   9.937 -0.0508  0.0668 -0.2706
  988SOL    HW1 4405   6.211   0.504   9.948  0.0175  1.1718 -0.3652
  988SOL    HW2 4406   6.342   0.575   9.977  0.8805 -0.5924  0.2425
  989SOL     OW 4407   5.680   2.988  11.709  0.4703  0.0512 -0.3162
  989SOL    HW1 4408   5.712   2.968  11.621 -2.0357 -1.0591 -1.0681
  989SOL    HW2 4409   5.607   3.049  11.695  1.1450  1.2846  1.1801
  990SOL     OW 4410   0.979   3.054   8.602  0.1793  0.3447 -0.3278
  990SOL    HW1 4411   1.060   3.021   8.564  0.4966  0.7446 -0.0080
  990SOL    HW2 4412   1.002   3.075   8.693 -0.4942 -0.3480  0.0153
  991SOL     OW 4413   1.633   3.654   8.331 -0.0540  0.0582  0.0458
  991SOL    HW1 4414   1.704   3.596   8.361  0.3115  0.8999  0.8507
  991SOL    HW2 4415   1.676   3.714   8.270  0.0106  0.7890  0.7968
  992SOL     OW 4416   3.140   2.863  11.648  0.0476  0.2103  0.1281
  992SOL    HW1 4417   3.194   2.799  11.696  0.8102  0.0212 -0.9375
  992SOL    HW2 4418   3.203   2.914  11.598 -0.7065  0.6194 -0.4207
  993SOL     OW 4419   3.443   1.201   2.392 -0.2871 -0.0925 -0.3536
  993SOL    HW1 4420   3.381   1.135   2.422 -0.1005  0.4385  1.3139
  993SOL    HW2 4421   3.516   1.151   2.357 -0.3559 -0.7753  0.4478
  994SOL     OW 4422   7.069   3.124   9.169  0.3190  0.7666  0.1709
  994SOL    HW1 4423   7.024   3.194   9.216 -1.0953  0.6751 -0.9742
  994SOL    HW2 4424   6.999   3.066   9.139  0.9846  1.3928 -2.9438
  995SOL     OW 4425   1.338   6.493   8.209  0.5039  0.5079  0.3890
  995SOL    HW1 4426   1.364   6.577   8.248  1.6034  0.3256  0.0687
  995SOL    HW2 4427   1.243   6.501   8.198  0.6804  2.0360 -0.3694
  996SOL     OW 4428   2.518   6.642   5.647 -0.1041 -0.1186  0.0682
  996SOL    HW1 4429   2.536   6.589   5.569  1.7525  1.0678 -0.3582
  996SOL    HW2 4430   2.604   6.658   5.686 -0.8655  0.5360  1.5696
  997SOL     OW 4431   5.843   5.760   9.691 -0.3348 -0.3363 -0.2687
  997SOL    HW1 4432   5.840   5.828   9.624  1.6067  0.3617  0.2834
  997SOL    HW2 4433   5.812   5.681   9.647  1.8400 -0.1408 -2.3655
  998SOL     OW 4434   5.711   0.918   3.606  0.0695  0.4103 -0.1465
  998SOL    HW1 4435   5.755   0.860   3.669  0.0870  0.3257 -0.2373
  998SOL    HW2 4436   5.765   0.997   3.604 -0.4968  0.8375  0.7418
  999SOL     OW 4437   4.141   2.219   4.376  0.6283  0.1840 -0.1639
  999SOL    HW1 4438   4.190   2.299   4.395 -0.4390  0.5290  1.3576
  999SOL    HW2 4439   4.052   2.238   4.406  0.1755 -1.3107 -0.4754
 1000SOL     OW 4440   2.337   0.683   8.391  0.2729 -0.1061  0.0168
 1000SOL    HW1 4441   2.268   0.690   8.325 -0.0691  1.5633  0.4967
 1000SOL    HW2 4442   2.349   0.589   8.404 -1.5989 -0.4441 -0.3898
 1001SOL     OW 4443   7.788   6.511   1.968  0.9126 -0.0822  0.6396
 1001SOL    HW1 4444   7.843   6.455   1.915  0.8122  0.5815 -0.1823
 1001SOL    HW2 4445   7.836   6.593   1.975 -0.3432  0.8371 -0.8727
 1002SOL     OW 4446   4.556   0.757  10.558  0.2903 -0.5253 -0.2524
 1002SOL    HW1 4447   4.648   0.762  10.535  0.3682  0.6968  0.2434
 1002SOL    HW2 4448   4.521   0.844  10.538 -0.6999 -0.8965 -0.2118
 1003SOL     OW 4449   0.869   1.591   3.719  0.7342  0.5553  0.3052
 1003SOL    HW1 4450   0.915   1.510   3.698 -1.4314 -0.5739 -0.3953
 1003SOL    HW2 4451   0.884   1.604   3.812  1.9164 -0.0934  0.2285
 1004SOL     OW 4452   0.485   5.740   1.804  0.0865  0.2411  0.0653
 1004SOL    HW1 4453   0.395   5.747   1.836 -0.0772  0.5996 -0.4702
 1004SOL    HW2 4454   0.477   5.736   1.709  0.7086  1.6410 -0.0721
 1005SOL     OW 4455   1.369   5.373   1.061  0.0397  0.1896  0.0498
 1005SOL    HW1 4456   1.305   5.387   1.132  0.7847  0.8634  0.6177
 1005SOL    HW2 4457   1.352   5.284   1.030 -0.6778  0.0899  0.6912
 1006SOL     OW 4458   0.782   2.974   0.651  0.0117 -0.5590 -0.3835
 1006SOL    HW1 4459   0.802   2.882   0.666 -0.0891 -0.3649  1.1353
 1006SOL    HW2 4460   0.841   3.000   0.580  0.2085 -1.7279 -0.6657
 1007SOL     OW 4461   1.364   3.277   4.002  0.7471  0.1608 -0.2894
 1007SOL    HW1 4462   1.328   3.228   4.076 -0.5820  1.2325 -0.1762
 1007SOL    HW2 4463   1.459   3.270   4.012  0.6646  1.6584  2.5130
 1008SOL     OW 4464   5.913   5.660  10.535 -0.2597 -0.4281  0.1905
 1008SOL    HW1 4465   5.889   5.631  10.447 -0.2286  1.4472 -0.4784
 1008SOL    HW2 4466   5.864   5.601  10.594 -1.7303 -0.5476 -1.0933
 1009SOL     OW 4467   6.203   6.393   1.192  0.7262 -0.0342 -0.1864
 1009SOL    HW1 4468   6.253   6.325   1.147  2.2024  1.1189 -0.3957
 1009SOL    HW2 4469   6.200   6.365   1.283  0.8655 -0.6361 -0.3676
 1010SOL     OW 4470   5.236   5.074   2.711  0.3574 -0.3746 -0.0852
 1010SOL    HW1 4471   5.141   5.076   2.703  0.2722  0.4354  0.9835
 1010SOL    HW2 4472   5.260   5.162   2.740  1.4343 -0.5850 -0.2719
 1011SOL     OW 4473   5.976   2.370  10.977 -0.2760 -0.2882  0.7188
 1011SOL    HW1 4474   6.066   2.352  11.001  0.1313 -0.6799 -0.9740
 1011SOL    HW2 4475   5.959   2.315  10.900 -1.0867  1.6924 -0.6186
 1012SOL     OW 4476   1.721   6.370   2.318 -0.1252  0.1821 -0.3939
 1012SOL    HW1 4477   1.660   6.410   2.380 -1.1358 -1.6444 -0.1252
 1012SOL    HW2 4478   1.762   6.299   2.368  1.4126  0.6782 -0.9124
 1013SOL     OW 4479   7.828   3.591   7.967 -0.0442  0.2793 -0.4818
 1013SOL    HW1 4480   7.799   3.645   7.894 -1.6277 -0.5829 -0.5521
 1013SOL    HW2 4481   7.852   3.653   8.036 -0.3256  1.0799 -1.0921
 1014SOL     OW 4482   4.940   3.315  11.502  0.5213 -0.1210  0.3900
 1014SOL    HW1 4483   4.919   3.240  11.446  2.6639 -1.6354  1.4852
 1014SOL    HW2 4484   4.906   3.391  11.454  0.2789 -1.5528 -1.8448
 1015SOL     OW 4485   0.883   7.710   7.209 -0.0535 -0.2620  0.3608
 1015SOL    HW1 4486   0.865   7.633   7.156 -0.6788  0.1075  0.0255
 1015SOL    HW2 4487   0.967   7.692   7.250 -0.2694 -1.1855  0.4110
 1016SOL     OW 4488   2.040   6.474   5.969  0.8547  0.0631  0.2909
 1016SOL    HW1 4489   2.018   6.381   5.972 -0.4294  0.2854 -1.0492
 1016SOL    HW2 4490   2.036   6.502   6.061  2.0773 -1.3377  0.8181
 1017SOL     OW 4491   5.999   6.378   7.366  0.1808 -0.0761 -0.2750
 1017SOL    HW1 4492   6.076   6.429   7.340 -1.1037  0.6595 -3.0380
 1017SOL    HW2 4493   5.996   6.385   7.461  1.0580  3.5809 -0.3927
 1018SOL     OW 4494   0.057   6.045   6.873  0.2572  0.2401 -0.1879
 1018SOL    HW1 4495  -0.026   6.004   6.849  0.3027  0.6604 -1.1079
 1018SOL    HW2 4496   0.088   5.994   6.948 -0.0934 -0.8931 -0.7829
 1019SOL     OW 4497   5.144   5.865   3.604 -0.1584 -0.2695  0.1248
 1019SOL    HW1 4498   5.235   5.890   3.591  0.0284 -1.1419 -0.3720
 1019SOL    HW2 4499   5.145   5.807   3.680 -0.4100  0.2901  0.5594
 1020SOL     OW 4500   6.040   0.156   2.606 -0.0398 -0.6797 -0.1359
 1020SOL    HW1 4501   5.961   0.201   2.574 -0.3758  1.0125  2.6929
 1020SOL    HW2 4502   6.015   0.063   2.607 -1.8176 -0.2514  0.1078
 1021SOL     OW 4503   5.093   6.643   1.310 -0.5040 -0.5028  0.6646
 1021SOL    HW1 4504   5.055   6.619   1.394  0.1060  0.3347  1.1982
 1021SOL    HW2 4505   5.116   6.736   1.319 -1.8177  0.0514 -0.9435
 1022SOL     OW 4506   7.394   3.153   8.882  0.0064  0.4015 -0.7705
 1022SOL    HW1 4507   7.377   3.219   8.949  0.5154 -1.1403  0.9496
 1022SOL    HW2 4508   7.307   3.123   8.856 -0.2059  1.2146 -1.0597
 1023SOL     OW 4509   7.316   2.871   7.904 -0.4171 -0.0745 -0.0323
 1023SOL    HW1 4510   7.311   2.777   7.915 -2.6013  0.0473  0.6006
 1023SOL    HW2 4511   7.249   2.891   7.838 -0.5399  1.1020  0.4180
 1024SOL     OW 4512   7.453   5.192   1.093  0.3169 -0.1124  0.0427
 1024SOL    HW1 4513   7.548   5.197   1.081  0.5466  1.6332  2.0973
 1024SOL    HW2 4514   7.441   5.178   1.187 -1.4696 -2.3212 -0.4245
 1025SOL     OW 4515   2.127   3.459   1.656  0.3715  1.0558 -0.1903
 1025SOL    HW1 4516   2.166   3.392   1.600 -0.9018 -0.6181  0.8236
 1025SOL    HW2 4517   2.116   3.535   1.599  0.0252 -0.2534 -1.9354
 1026SOL     OW 4518   5.035   6.967   6.551  0.6461  0.1119  0.5201
 1026SOL    HW1 4519   5.012   7.060   6.554  0.5965  0.1226  0.0202
 1026SOL    HW2 4520   5.118   6.965   6.503  0.1531 -0.1796 -0.3388
 1027SOL     OW 4521   1.407   2.619  11.803 -0.1502 -0.2835  0.2747
 1027SOL    HW1 4522   1.380   2.662  11.884 -1.7931 -0.5511 -0.0930
 1027SOL    HW2 4523   1.487   2.666  11.777 -0.8434  1.3093  0.8702
 1028SOL     OW 4524   0.634   1.612  10.318  0.0270  0.3091  0.2313
 1028SOL    HW1 4525   0.635   1.620  10.414 -0.3478 -2.1629  0.5160
 1028SOL    HW2 4526   0.544   1.587  10.298  0.5924 -1.2638 -0.5022
 1029SOL     OW 4527   0.622   4.646   3.239 -0.5178  0.2931 -0.6124
 1029SOL    HW1 4528   0.561   4.593   3.291  0.6541 -0.4150  0.0838
 1029SOL    HW2 4529   0.603   4.736   3.265 -2.5314  0.2791 -1.7998
 1030SOL     OW 4530   2.303   4.965   9.104  0.4301 -0.0854 -0.2347
 1030SOL    HW1 4531   2.341   4.909   9.037 -0.1733 -1.0790  0.2404
 1030SOL    HW2 4532   2.360   4.955   9.179  1.6858  1.8034 -0.8661
 1031SOL     OW 4533   0.626   0.754   6.672 -0.0008 -0.3856  0.2052
 1031SOL    HW1 4534   0.617   0.663   6.644 -2.1324 -0.0517 -0.3848
 1031SOL    HW2 4535   0.591   0.755   6.761  1.6591 -0.4244  0.8949
 1032SOL     OW 4536   1.409   2.594   1.359 -0.3486  0.1798  0.1913
 1032SOL    HW1 4537   1.330   2.621   1.313 -1.3431  0.3344  1.9064
 1032SOL    HW2 4538   1.393   2.503   1.385 -0.2333  0.3948  1.0601
 1033SOL     OW 4539   1.309   2.462  10.150  0.1975 -0.2827 -0.1612
 1033SOL    HW1 4540   1.255   2.392  10.187 -1.4889  1.4074  0.8173
 1033SOL    HW2 4541   1.292   2.459  10.056  1.4670 -2.1857 -0.3650
 1034SOL     OW 4542   4.032   2.566   5.413  0.2191  0.0896  0.5364
 1034SOL    HW1 4543   3.978   2.502   5.459 -0.6377  0.9414  0.7717
 1034SOL    HW2 4544   4.062   2.625   5.482  2.1179 -0.7910  0.5238
 1035SOL     OW 4545   1.256   3.517   5.469  0.4833 -0.0954 -0.4515
 1035SOL    HW1 4546   1.198   3.495   5.542 -0.5284 -0.6556 -1.3990
 1035SOL    HW2 4547   1.203   3.573   5.412  0.6452 -1.1081 -1.6381
 1036SOL     OW 4548   3.684   7.344   7.211 -0.0470 -0.0881  0.1606
 1036SOL    HW1 4549   3.734   7.421   7.238  2.1672 -1.5756  0.5285
 1036SOL    HW2 4550   3.727   7.271   7.255 -1.1964 -1.7155 -1.3003
 1037SOL     OW 4551   3.137   3.422   5.674 -0.2301 -0.3867  0.1445
 1037SOL    HW1 4552   3.203   3.385   5.734  0.7813 -1.3128 -1.4573
 1037SOL    HW2 4553   3.113   3.349   5.617 -2.2241  0.1067  0.2755
 1038SOL     OW 4554   3.651   5.051   1.349  0.0397 -0.0328  0.0736
 1038SOL    HW1 4555   3.620   5.138   1.322  1.3099  0.3009 -0.3878
 1038SOL    HW2 4556   3.578   5.014   1.399 -1.8110 -0.0153 -2.3856
 1039SOL     OW 4557   7.828   2.213   1.169 -0.0114  0.4928  0.3625
 1039SOL    HW1 4558   7.744   2.249   1.140 -0.0422  0.8964  0.9549
 1039SOL    HW2 4559   7.814   2.118   1.168 -0.4892  0.5567  0.4885
 1040SOL     OW 4560   3.899   0.755   2.162 -0.0869 -0.2238 -0.5056
 1040SOL    HW1 4561   3.850   0.726   2.239  0.2920  0.0782 -0.1457
 1040SOL    HW2 4562   3.983   0.710   2.169  0.2911  0.5082 -0.2450
 1041SOL     OW 4563   0.020   5.969   2.402  0.1686  0.1183 -0.0447
 1041SOL    HW1 4564   0.052   5.879   2.398 -1.0797 -0.3548 -0.0027
 1041SOL    HW2 4565  -0.047   5.967   2.471  0.3211  1.1420  0.1430
 1042SOL     OW 4566   1.925   6.455   1.502 -0.0056 -0.3719 -0.2336
 1042SOL    HW1 4567   2.011   6.426   1.534  0.2251  0.6442  0.1065
 1042SOL    HW2 4568   1.943   6.492   1.415 -0.4023 -1.8086 -0.9486
 1043SOL     OW 4569   1.408   0.288   3.047  0.5050 -0.7146 -0.3748
 1043SOL    HW1 4570   1.464   0.239   2.987  1.2285  0.2320 -0.4857
 1043SOL    HW2 4571   1.467   0.319   3.116 -0.3396 -1.9645  0.9820
 1044SOL     OW 4572   3.247   2.057   6.614  0.1475  0.1199 -0.0043
 1044SOL    HW1 4573   3.207   1.973   6.638 -0.6577  0.6896  0.7309
 1044SOL    HW2 4574   3.336   2.051   6.648  0.1456 -0.4984 -0.0941
 1045SOL     OW 4575   1.013   5.859   7.586  0.6042 -0.2568  0.1315
 1045SOL    HW1 4576   0.941   5.921   7.601  0.6872 -0.2809  0.6325
 1045SOL    HW2 4577   1.089   5.901   7.625  0.7257 -0.5369  0.1964
 1046SOL     OW 4578   5.539   0.115   9.972 -0.1098 -0.9432  0.1196
 1046SOL    HW1 4579   5.458   0.135  10.019 -0.1492  0.1299 -0.3653
 1046SOL    HW2 4580   5.571   0.035  10.013 -1.1976 -1.1558  0.5977
 1047SOL     OW 4581   0.848   7.404   8.517 -0.2110  0.0617  0.2403
 1047SOL    HW1 4582   0.864   7.342   8.588 -0.3079 -0.0734  0.1447
 1047SOL    HW2 4583   0.811   7.481   8.560 -2.3429 -0.8310  0.1070
 1048SOL     OW 4584   1.971   3.651  11.790 -0.0983  0.7109  0.4424
 1048SOL    HW1 4585   2.053   3.696  11.809 -0.0403  0.2743  1.3129
 1048SOL    HW2 4586   1.975   3.571  11.844 -0.5773  0.1042 -0.3941
 1049SOL     OW 4587   4.421   5.384  10.571 -0.0269  0.1542  0.4346
 1049SOL    HW1 4588   4.437   5.296  10.604  1.3018 -0.1371 -0.8314
 1049SOL    HW2 4589   4.396   5.371  10.479  1.4755  1.1146 -0.1562
 1050SOL     OW 4590   0.098   3.920   5.188 -0.2569  0.0318 -0.2711
 1050SOL    HW1 4591   0.185   3.902   5.151  0.2351 -0.6691  1.1371
 1050SOL    HW2 4592   0.079   4.010   5.161  0.8075  0.1271 -0.7931
 1051SOL     OW 4593   1.208   6.604   7.955  0.0038 -0.7258  0.0379
 1051SOL    HW1 4594   1.200   6.674   8.020 -0.1212 -0.4140 -0.3058
 1051SOL    HW2 4595   1.209   6.523   8.006  2.1590 -0.3893  0.5958
 1052SOL     OW 4596   3.824   6.889   9.144 -0.2166 -0.3515 -0.7558
 1052SOL    HW1 4597   3.811   6.865   9.235  1.6779  0.1746 -0.3101
 1052SOL    HW2 4598   3.735   6.894   9.108 -1.0705  0.3646  1.2903
 1053SOL     OW 4599   7.740   1.592   3.249  0.0583 -0.4609  0.1561
 1053SOL    HW1 4600   7.744   1.683   3.278  0.2335  0.0202 -1.3079
 1053SOL    HW2 4601   7.772   1.593   3.159  0.1464 -1.9916  0.1316
 1054SOL     OW 4602   3.939   7.659  10.702  0.7769 -0.9138 -0.6646
 1054SOL    HW1 4603   4.020   7.695  10.667  1.7652 -1.9647  0.4688
 1054SOL    HW2 4604   3.916   7.717  10.774  0.1220 -0.2238 -1.4044
 1055SOL     OW 4605   6.690   2.523   6.523 -0.0092  0.7938  0.0320
 1055SOL    HW1 4606   6.786   2.519   6.530 -0.0380  2.0877  2.0887
 1055SOL    HW2 4607   6.661   2.553   6.609 -2.4123 -1.0230 -0.0236
 1056SOL     OW 4608   1.356   1.257   3.103  0.6155  0.1032  0.3665
 1056SOL    HW1 4609   1.307   1.339   3.111  0.1061 -0.3130  1.7503
 1056SOL    HW2 4610   1.394   1.244   3.190  0.2775 -1.3885  0.3072
 1057SOL     OW 4611   0.186   1.418  11.606  0.4237  0.0490  0.3475
 1057SOL    HW1 4612   0.191   1.505  11.568  0.8114 -0.1003  0.0473
 1057SOL    HW2 4613   0.164   1.432  11.698 -2.3334  0.3604 -0.2744
 1058SOL     OW 4614   6.857   3.862   9.796  0.2554  0.1580  0.4597
 1058SOL    HW1 4615   6.904   3.921   9.737 -1.8701 -1.4219 -3.1638
 1058SOL    HW2 4616   6.813   3.920   9.857  1.4459  2.0433 -0.3635
 1059SOL     OW 4617   4.458   0.990  10.461 -0.2624  0.1647 -0.2991
 1059SOL    HW1 4618   4.518   1.036  10.402  0.8569 -1.9867 -0.9209
 1059SOL    HW2 4619   4.374   1.034  10.448  0.2705  0.6453 -2.4546
 1060SOL     OW 4620   5.974   4.962   1.794 -0.3455 -0.6621 -0.6774
 1060SOL    HW1 4621   5.983   5.039   1.737 -2.1174  0.1890  0.1129
 1060SOL    HW2 4622   5.891   4.923   1.768 -0.7213 -0.7951  0.6880
 1061SOL     OW 4623   4.077   5.331   1.488  0.2160 -0.1089 -0.0339
 1061SOL    HW1 4624   4.108   5.265   1.426  0.3836  0.5769 -0.6941
 1061SOL    HW2 4625   3.984   5.340   1.469 -0.2318 -1.4679  1.3002
 1062SOL     OW 4626   3.650   5.483   5.866 -0.3061  0.6367 -0.8151
 1062SOL    HW1 4627   3.582   5.461   5.802 -0.6246  0.9356 -0.5873
 1062SOL    HW2 4628   3.623   5.436   5.946  0.9222 -1.0025 -1.3173
 1063SOL     OW 4629   5.163   6.431  11.868  0.5582  0.1062  0.0929
 1063SOL    HW1 4630   5.182   6.358  11.810  1.7735  0.5355 -0.0919
 1063SOL    HW2 4631   5.160   6.393  11.956  0.2870 -0.2995 -0.0921
 1064SOL     OW 4632   0.391   6.912   0.821  0.2635  0.2631 -0.2634
 1064SOL    HW1 4633   0.457   6.976   0.795 -1.5487  1.8968 -1.0723
 1064SOL    HW2 4634   0.402   6.839   0.760  1.6628  0.2369 -0.0116
 1065SOL     OW 4635   5.817   4.687   7.265 -0.3628  0.1317 -0.4497
 1065SOL    HW1 4636   5.785   4.658   7.179  0.4569 -2.1813 -0.0429
 1065SOL    HW2 4637   5.848   4.607   7.307  0.2628  1.3803  1.5954
 1066SOL     OW 4638   1.880   4.295   8.247  0.4275 -0.0921  0.1160
 1066SOL    HW1 4639   1.899   4.303   8.154 -1.1943 -0.7494 -0.3194
 1066SOL    HW2 4640   1.960   4.322   8.291  0.0275  4.4532 -1.3411
 1067SOL     OW 4641   5.294   6.391   5.830  0.3858  0.2752  0.3006
 1067SOL    HW1 4642   5.213   6.342   5.844  0.5694 -0.0348  0.2794
 1067SOL    HW2 4643   5.287   6.423   5.740  0.1613  0.4847  0.3913
 1068SOL     OW 4644   0.148   2.032   7.081 -0.2842 -0.0434 -0.2992
 1068SOL    HW1 4645   0.241   2.025   7.104 -0.7232  0.1598  1.6966
 1068SOL    HW2 4646   0.121   1.943   7.061  1.0957  0.2710 -4.4351
 1069SOL     OW 4647   0.564   5.872   9.212 -0.1537  0.1553 -0.2649
 1069SOL    HW1 4648   0.546   5.957   9.172 -2.2150  0.1291  0.4516
 1069SOL    HW2 4649   0.653   5.880   9.247  0.1049  1.6169 -1.1611
 1070SOL     OW 4650   3.229   4.337   5.776  0.1832  0.0297 -0.0135
 1070SOL    HW1 4651   3.273   4.418   5.749 -1.0629  0.8069  0.1951
 1070SOL    HW2 4652   3.193   4.358   5.862  1.7887 -1.5215  1.1074
 1071SOL     OW 4653   7.801   3.234   5.047 -0.2905  0.0340  0.0455
 1071SOL    HW1 4654   7.751   3.315   5.042 -0.1620  0.0379 -1.9799
 1071SOL    HW2 4655   7.818   3.221   5.140  0.0465  2.5513  0.3839
 1072SOL     OW 4656   3.180   1.232   1.406 -0.3384  0.0172  0.1154
 1072SOL    HW1 4657   3.237   1.272   1.471 -0.3810  0.7598 -0.2979
 1072SOL    HW2 4658   3.239   1.195   1.341 -0.3079 -0.2732  0.3058
 1073SOL     OW 4659   5.992   5.045   6.403  0.2901  0.0030 -0.8585
 1073SOL    HW1 4660   5.961   5.134   6.383  0.1120 -0.0751 -0.9344
 1073SOL    HW2 4661   5.960   5.029   6.492  2.0570  0.7890 -0.0173
 1074SOL     OW 4662   6.755   0.983  11.526 -0.3128 -0.2579  0.6583
 1074SOL    HW1 4663   6.815   0.916  11.559 -0.9654 -0.6969  0.9751
 1074SOL    HW2 4664   6.677   0.973  11.579 -1.3802 -0.9322 -0.9437
 1075SOL     OW 4665   7.341   4.591   9.063  0.5644  0.4941 -0.1568
 1075SOL    HW1 4666   7.414   4.528   9.056 -0.0932 -0.3570  0.4119
 1075SOL    HW2 4667   7.331   4.604   9.157 -0.7479 -0.2811 -0.1726
 1076SOL     OW 4668   4.097   0.779   0.405 -0.1150  0.4618  0.7270
 1076SOL    HW1 4669   4.135   0.695   0.429 -1.0170 -0.0513  0.3909
 1076SOL    HW2 4670   4.078   0.772   0.312 -0.5993  0.8872  0.7899
 1077SOL     OW 4671   0.820   4.701   7.036  0.4184 -0.2846 -1.1544
 1077SOL    HW1 4672   0.796   4.753   6.959 -2.8946 -0.9957 -0.7649
 1077SOL    HW2 4673   0.839   4.614   7.001  1.3667  0.0097 -1.3805
 1078SOL     OW 4674   4.335   4.705   3.737 -0.1449  0.3856  0.4468
 1078SOL    HW1 4675   4.399   4.670   3.799  0.9019 -1.5695 -1.6026
 1078SOL    HW2 4676   4.360   4.796   3.725  0.9265  0.2258  1.3266
 1079SOL     OW 4677   1.860   1.344   6.931  0.2165 -0.2872  0.1405
 1079SOL    HW1 4678   1.859   1.323   6.838  1.6952 -0.5838  0.1592
 1079SOL    HW2 4679   1.844   1.438   6.935 -0.6334 -0.4016 -0.3417
 1080SOL     OW 4680   6.201   7.528   7.097  0.2114  0.3113 -0.4910
 1080SOL    HW1 4681   6.161   7.540   7.183  0.3523 -0.1353 -0.3626
 1080SOL    HW2 4682   6.295   7.518   7.115  0.0737 -1.3353 -0.5501
 1081SOL     OW 4683   7.817   3.439   2.654 -0.1684  0.3605  0.1629
 1081SOL    HW1 4684   7.768   3.381   2.596 -0.4734  2.2320 -1.5824
 1081SOL    HW2 4685   7.769   3.522   2.651  1.7749  1.5586  0.2861
 1082SOL     OW 4686   7.244   4.050   3.131 -0.7320  0.0722 -0.2918
 1082SOL    HW1 4687   7.187   3.975   3.146  0.6718 -1.0181 -0.2357
 1082SOL    HW2 4688   7.204   4.121   3.181 -1.7904 -0.7606  0.0857
 1083SOL     OW 4689   7.635   3.304   8.778 -0.0104 -0.1212 -0.3123
 1083SOL    HW1 4690   7.579   3.363   8.828 -2.1026 -2.9905  0.9628
 1083SOL    HW2 4691   7.621   3.330   8.687 -2.7468 -0.0964  0.0336
 1084SOL     OW 4692   5.903   6.456   9.842 -0.1002 -0.1605 -0.6047
 1084SOL    HW1 4693   5.961   6.399   9.791  0.1566 -0.4366 -0.0169
 1084SOL    HW2 4694   5.925   6.545   9.814 -0.3160 -0.3339 -1.3351
 1085SOL     OW 4695   3.627   5.258   3.612  0.3334 -0.2839 -0.4874
 1085SOL    HW1 4696   3.595   5.247   3.523  0.0981  0.5781 -0.5199
 1085SOL    HW2 4697   3.668   5.174   3.633 -0.3221 -0.7777 -1.1077
 1086SOL     OW 4698   0.226   4.028   6.535 -0.3206 -0.4601 -0.5666
 1086SOL    HW1 4699   0.198   3.943   6.567 -0.3275  0.3013  1.6393
 1086SOL    HW2 4700   0.146   4.071   6.506 -0.1806 -1.5705 -2.8168
 1087SOL     OW 4701   3.652   2.746  11.008  0.3056 -0.0536 -0.3150
 1087SOL    HW1 4702   3.678   2.832  10.975  1.0818 -0.3660 -0.5279
 1087SOL    HW2 4703   3.591   2.766  11.080 -0.4963  0.6430 -1.1587
 1088SOL     OW 4704   6.227   0.544  12.051  0.2251 -0.0280  0.1676
 1088SOL    HW1 4705   6.145   0.588  12.074  1.0702  1.4776  0.4573
 1088SOL    HW2 4706   6.246   0.487  12.125  0.1983  0.7514  0.7802
 1089SOL     OW 4707   2.965   0.422   0.763 -0.3773  0.2052 -0.7355
 1089SOL    HW1 4708   3.000   0.364   0.830 -0.8835  0.4023 -0.2883
 1089SOL    HW2 4709   3.041   0.469   0.729 -0.3151  1.4942  1.0419
 1090SOL     OW 4710   6.850   2.381   2.317  0.2564 -0.1664 -0.1098
 1090SOL    HW1 4711   6.777   2.430   2.281  0.4558 -0.9354 -1.6236
 1090SOL    HW2 4712   6.929   2.428   2.290  0.3700  0.2812  0.9357
 1091SOL     OW 4713   0.662   7.205   1.631  0.1229  0.3771  0.4171
 1091SOL    HW1 4714   0.667   7.265   1.705  0.2854 -0.6545  1.2618
 1091SOL    HW2 4715   0.749   7.209   1.591  0.2017  0.5292  0.6032
 1092SOL     OW 4716   2.973   3.398   9.637 -0.4458 -0.2831  0.3942
 1092SOL    HW1 4717   2.960   3.382   9.731 -1.5389 -0.8234  0.1696
 1092SOL    HW2 4718   3.034   3.330   9.609 -0.1694 -0.1630  0.7052
 1093SOL     OW 4719   3.459   2.322  12.228 -0.2919 -0.3960  0.1365
 1093SOL    HW1 4720   3.479   2.397  12.172  0.1138  0.0019  0.7983
 1093SOL    HW2 4721   3.533   2.262  12.216 -0.6616 -0.7416 -0.4635
 1094SOL     OW 4722   1.845   2.537   2.309  0.4601 -0.1922  0.2229
 1094SOL    HW1 4723   1.774   2.486   2.350  0.5801  0.2581  0.9997
 1094SOL    HW2 4724   1.802   2.584   2.238  0.0419 -0.1751  0.4847
 1095SOL     OW 4725   3.049   3.904  12.413 -0.3322  0.0335 -0.5702
 1095SOL    HW1 4726   3.069   3.838  12.347 -1.0079 -0.6702 -0.0925
 1095SOL    HW2 4727   3.132   3.949  12.429  1.0720 -3.0183  1.6057
 1096SOL     OW 4728   1.659   0.589   0.641  0.0654 -0.3891 -0.1978
 1096SOL    HW1 4729   1.676   0.673   0.598 -1.1671 -0.8307 -1.5991
 1096SOL    HW2 4730   1.745   0.546   0.644  0.4892  0.4079 -0.5405
 1097SOL     OW 4731   7.066   4.779   5.513 -0.3473  0.5558 -0.0662
 1097SOL    HW1 4732   7.103   4.790   5.425 -0.4352 -1.7745 -0.4633
 1097SOL    HW2 4733   7.121   4.834   5.569  0.1612  1.5237 -1.4548
 1098SOL     OW 4734   2.204   6.345   0.298  0.3554 -0.5707  0.4999
 1098SOL    HW1 4735   2.170   6.416   0.243 -1.5218 -2.6173 -1.1473
 1098SOL    HW2 4736   2.293   6.373   0.319  0.0739  1.7633 -0.9822
 1099SOL     OW 4737   5.654   1.823  12.160 -0.3114  0.6590 -0.5613
 1099SOL    HW1 4738   5.567   1.816  12.120 -0.3296 -0.8944 -0.3103
 1099SOL    HW2 4739   5.700   1.744  12.130  0.7179  1.0293  0.0073
 1100SOL     OW 4740   7.883   7.254   7.030 -0.2155 -0.1417 -0.5285
 1100SOL    HW1 4741   7.968   7.220   7.058  0.5511 -0.2396 -2.7599
 1100SOL    HW2 4742   7.820   7.217   7.092  1.4334  0.8196  1.8702
 1101SOL     OW 4743   6.370   3.153   9.101 -0.0180 -0.0290  0.2079
 1101SOL    HW1 4744   6.413   3.081   9.146 -0.6638  0.0534  0.9955
 1101SOL    HW2 4745   6.441   3.213   9.076  0.3185  0.2270  1.6912
 1102SOL     OW 4746   0.780   0.798   7.610  0.0476  0.3426 -0.5408
 1102SOL    HW1 4747   0.753   0.720   7.560 -0.0425 -0.6662  1.0169
 1102SOL    HW2 4748   0.716   0.865   7.585 -2.4030 -1.2253  1.0456
 1103SOL     OW 4749   6.987   0.800   7.072  0.3896  0.3462 -0.0110
 1103SOL    HW1 4750   7.013   0.731   7.133 -0.1249  1.2141  1.2358
 1103SOL    HW2 4751   6.896   0.778   7.048  0.7104 -0.1918 -0.7734
 1104SOL     OW 4752   3.260   2.066  12.067  0.7427 -0.3142  0.3582
 1104SOL    HW1 4753   3.198   2.058  12.139  0.4466  1.1745  0.2905
 1104SOL    HW2 4754   3.313   1.987  12.072  0.9903 -0.0551  2.4443
 1105SOL     OW 4755   2.460   6.906   8.953 -0.6886 -0.2606  0.2134
 1105SOL    HW1 4756   2.462   6.954   8.870  0.0466  2.4987  1.7024
 1105SOL    HW2 4757   2.530   6.946   9.005 -0.2343 -2.8286  1.7192
 1106SOL     OW 4758   2.989   1.046   1.610  0.7386 -0.8177 -0.3825
 1106SOL    HW1 4759   2.948   0.964   1.636  3.1784 -1.7003  1.0436
 1106SOL    HW2 4760   2.934   1.080   1.539 -2.8375 -1.3899  1.8822
 1107SOL     OW 4761   0.543   7.683   2.455  0.0775 -0.2480 -0.2715
 1107SOL    HW1 4762   0.488   7.760   2.440  0.5313 -0.0190 -0.8014
 1107SOL    HW2 4763   0.625   7.703   2.410 -0.5393 -1.9478 -2.2763
 1108SOL     OW 4764   0.277   5.615   7.849  0.3141 -0.0228  0.2560
 1108SOL    HW1 4765   0.267   5.521   7.865 -2.1811  0.2201  0.4980
 1108SOL    HW2 4766   0.313   5.650   7.931  0.4622 -0.6620  0.4656
 1109SOL     OW 4767   4.087   1.726   6.262  0.1758  0.0456  0.0671
 1109SOL    HW1 4768   4.029   1.790   6.220 -0.9160 -0.5757  0.5806
 1109SOL    HW2 4769   4.142   1.694   6.191  0.0211  0.7817 -0.4003
 1110SOL     OW 4770   1.376   0.997  12.421  0.6341 -0.3257 -0.5435
 1110SOL    HW1 4771   1.353   1.014  12.513  2.9007  1.0332 -0.1351
 1110SOL    HW2 4772   1.408   0.907  12.421  1.4663 -0.0498  0.2261
 1111SOL     OW 4773   4.312   1.426   1.358 -0.4190  0.0606 -0.6824
 1111SOL    HW1 4774   4.397   1.443   1.318 -1.8265  1.4660 -3.3251
 1111SOL    HW2 4775   4.299   1.500   1.418 -0.5030  0.8326 -1.6220
 1112SOL     OW 4776   1.213   2.521  11.642 -0.5465  0.3045  0.4680
 1112SOL    HW1 4777   1.276   2.566  11.698 -0.7152 -2.0541  2.7509
 1112SOL    HW2 4778   1.266   2.466  11.584 -0.4353  0.9502 -0.0494
 1113SOL     OW 4779   3.749   6.035   5.154 -0.1220 -0.2477 -0.1497
 1113SOL    HW1 4780   3.732   5.951   5.197 -2.2553  0.4755  0.5412
 1113SOL    HW2 4781   3.790   6.089   5.222  2.1582 -0.9633 -0.8696
 1114SOL     OW 4782   5.233   0.693   9.393 -0.4624  0.2663  0.0691
 1114SOL    HW1 4783   5.192   0.609   9.372 -1.2661  0.4282  0.9140
 1114SOL    HW2 4784   5.280   0.717   9.313 -1.1275 -0.4583 -0.5638
 1115SOL     OW 4785   3.981   5.072   5.732  0.0548  0.0439  0.1611
 1115SOL    HW1 4786   3.969   5.005   5.666  0.0584 -0.6702  0.8694
 1115SOL    HW2 4787   3.892   5.101   5.754 -0.0154 -0.5499  0.6762
 1116SOL     OW 4788   4.314   6.635   3.733  0.1912 -0.5321 -0.5184
 1116SOL    HW1 4789   4.325   6.679   3.649  2.8156 -1.0464 -0.5262
 1116SOL    HW2 4790   4.383   6.670   3.789  1.1581 -3.1658  0.0900
 1117SOL     OW 4791   4.555   0.055  11.217  0.0959  0.6205  0.6491
 1117SOL    HW1 4792   4.560   0.117  11.144 -1.2719  3.5319  2.8139
 1117SOL    HW2 4793   4.611   0.094  11.284  0.4626 -1.3966  1.5802
 1118SOL     OW 4794   7.725   5.579   3.733  0.2060  0.3533  0.5191
 1118SOL    HW1 4795   7.644   5.611   3.772 -1.2764 -2.5544  0.1086
 1118SOL    HW2 4796   7.760   5.518   3.798  2.2102  1.6238  0.7322
 1119SOL     OW 4797   4.256   0.827   3.582 -0.2172  0.1517  0.4280
 1119SOL    HW1 4798   4.166   0.837   3.612 -1.0213  2.5672 -2.3227
 1119SOL    HW2 4799   4.305   0.894   3.631 -0.6217  1.0347 -0.3354
 1120SOL     OW 4800   6.612   6.273   5.260  0.2127  0.2216  0.1690
 1120SOL    HW1 4801   6.529   6.317   5.245  0.7346  1.2741  0.3204
 1120SOL    HW2 4802   6.595   6.215   5.335  0.0182  1.5496  1.1802
 1121SOL     OW 4803   2.918   6.555   7.605 -0.3777 -0.7689 -0.3220
 1121SOL    HW1 4804   2.899   6.613   7.678  1.1310  0.1886 -0.6355
 1121SOL    HW2 4805   2.895   6.604   7.527 -0.2370 -1.0600 -0.5523
 1122SOL     OW 4806   4.702   1.579   5.615  0.3406  0.5538  0.0289
 1122SOL    HW1 4807   4.665   1.660   5.581 -0.7665 -1.0166 -2.9105
 1122SOL    HW2 4808   4.771   1.556   5.552  1.7107 -0.0437  1.6607
 1123SOL     OW 4809   2.545   4.954  11.248 -0.2088 -0.3057 -0.2511
 1123SOL    HW1 4810   2.498   4.880  11.211 -0.8422 -0.0881  0.1152
 1123SOL    HW2 4811   2.502   5.031  11.210 -0.3504 -0.1002  0.3224
 1124SOL     OW 4812   3.996   3.170   9.518 -0.2095 -0.3249  0.6653
 1124SOL    HW1 4813   3.924   3.230   9.498  0.8698  0.7327 -0.1568
 1124SOL    HW2 4814   4.019   3.130   9.434 -0.8364 -1.8625  1.1761
 1125SOL     OW 4815   3.283   5.389  10.461  0.9088  0.3138  0.8611
 1125SOL    HW1 4816   3.369   5.369  10.423  0.9401  0.1805  1.0023
 1125SOL    HW2 4817   3.291   5.363  10.553  1.4385  2.3061  1.4375
 1126SOL     OW 4818   4.484   5.087   2.489  0.6017  0.2008 -0.5825
 1126SOL    HW1 4819   4.428   5.137   2.429 -0.2845 -0.9528 -0.7542
 1126SOL    HW2 4820   4.469   5.126   2.575 -0.7725 -0.3142 -0.5661
 1127SOL     OW 4821   4.685   7.818   6.542  0.3551  0.6020 -0.2157
 1127SOL    HW1 4822   4.605   7.870   6.548  0.1929  0.5919 -1.9629
 1127SOL    HW2 4823   4.656   7.732   6.510  0.8301 -0.0769  1.0853
 1128SOL     OW 4824   6.826   3.596   2.152 -0.1607 -0.5533 -0.3648
 1128SOL    HW1 4825   6.910   3.554   2.170  0.6234  1.0267 -0.1414
 1128SOL    HW2 4826   6.825   3.605   2.056 -0.7636 -1.8639 -0.5095
 1129SOL     OW 4827   6.013   2.618   8.213 -0.6873  0.2983  0.2629
 1129SOL    HW1 4828   6.012   2.541   8.156 -0.9894  1.0212 -0.7361
 1129SOL    HW2 4829   6.101   2.618   8.252 -1.0688 -1.1931  1.2039
 1130SOL     OW 4830   0.570   6.007   3.733 -0.4159 -0.0588 -0.1718
 1130SOL    HW1 4831   0.630   5.948   3.686  0.4124  0.7938 -0.2177
 1130SOL    HW2 4832   0.562   5.968   3.820 -0.9651 -0.9705 -0.6156
 1131SOL     OW 4833   0.674   0.860   4.930 -0.0188 -0.0987  0.3192
 1131SOL    HW1 4834   0.619   0.920   4.878 -0.1999 -2.2393 -2.1640
 1131SOL    HW2 4835   0.760   0.865   4.888  0.5756  0.0870  1.5307
 1132SOL     OW 4836   6.739   5.481   9.367  0.0444 -0.6341  1.0345
 1132SOL    HW1 4837   6.826   5.469   9.328  0.6639 -2.4703  2.8254
 1132SOL    HW2 4838   6.752   5.545   9.436  0.4545 -2.2800  2.5493
 1133SOL     OW 4839   2.099   3.226  10.319  0.5818  0.1223  0.1144
 1133SOL    HW1 4840   2.138   3.182  10.394  0.1736 -2.1029 -0.8653
 1133SOL    HW2 4841   2.006   3.200  10.322  0.4283  0.5288 -0.7638
 1134SOL     OW 4842   7.366   0.004  11.739  1.0073  0.2486 -0.1789
 1134SOL    HW1 4843   7.286  -0.016  11.787  0.7709 -0.3632 -0.7957
 1134SOL    HW2 4844   7.335   0.036  11.654  1.4116  1.5595  0.1439
 1135SOL     OW 4845   1.099   7.551   0.112  0.2515  0.8730  0.7374
 1135SOL    HW1 4846   1.082   7.465   0.150 -0.3182  0.5388 -0.2424
 1135SOL    HW2 4847   1.194   7.551   0.096  0.5291  1.0663  2.2050
 1136SOL     OW 4848   4.100   5.811   9.276 -0.0133 -0.1789 -0.4606
 1136SOL    HW1 4849   4.183   5.770   9.301 -1.8588 -3.8771  0.3197
 1136SOL    HW2 4850   4.100   5.810   9.180  0.7718 -0.2603 -0.4661
 1137SOL     OW 4851   0.611   7.190  10.887 -0.2638 -0.0323  0.0581
 1137SOL    HW1 4852   0.593   7.099  10.914 -2.2084  0.0179 -0.8824
 1137SOL    HW2 4853   0.525   7.232  10.885  0.4426  1.4678 -0.8309
 1138SOL     OW 4854   0.811   2.892   5.460  0.3248  0.0356 -0.1451
 1138SOL    HW1 4855   0.872   2.953   5.418  0.5115 -0.3715 -0.4640
 1138SOL    HW2 4856   0.853   2.807   5.452  0.9062  0.0849  1.8341
 1139SOL     OW 4857   3.211   7.069  10.574 -0.2050  0.1630  0.0845
 1139SOL    HW1 4858   3.188   7.162  10.576  0.6875  0.4362 -1.0208
 1139SOL    HW2 4859   3.195   7.039  10.663  0.5107  1.6373  0.7544
 1140SOL     OW 4860   4.373   1.677  11.698  0.1600  0.3856 -0.0379
 1140SOL    HW1 4861   4.397   1.717  11.782  1.4554  0.6420 -0.4991
 1140SOL    HW2 4862   4.436   1.606  11.686 -1.2523 -0.9339  0.1130
 1141SOL     OW 4863   2.538   2.737   9.580  0.1003  0.1508 -0.3002
 1141SOL    HW1 4864   2.611   2.798   9.575  0.2715  0.0733  0.9870
 1141SOL    HW2 4865   2.461   2.789   9.558  0.5367  0.1929 -1.8340
 1142SOL     OW 4866   5.080   4.865   0.741  0.7985 -0.0302  0.5823
 1142SOL    HW1 4867   5.165   4.872   0.785  0.8884 -3.4827  1.2015
 1142SOL    HW2 4868   5.098   4.819   0.659 -0.3188  0.3363  0.1045
 1143SOL     OW 4869   3.013   0.745   5.060  0.5443  0.1716 -0.4640
 1143SOL    HW1 4870   3.014   0.801   4.982 -0.1897 -0.2135 -0.7579
 1143SOL    HW2 4871   3.105   0.740   5.086  0.8887 -0.2075 -1.6742
 1144SOL     OW 4872   7.253   1.418   1.982 -0.2280 -0.2046 -0.5664
 1144SOL    HW1 4873   7.246   1.413   2.078  1.4542  2.9070 -0.1717
 1144SOL    HW2 4874   7.346   1.430   1.965 -0.6054  0.2961 -2.5428
 1145SOL     OW 4875   4.260   5.270   8.858 -0.1963 -0.1336  0.1538
 1145SOL    HW1 4876   4.342   5.302   8.819 -0.4224  1.6439  1.0416
 1145SOL    HW2 4877   4.191   5.316   8.809 -0.4889  1.9826  2.3845
 1146SOL     OW 4878   6.236   3.944  10.462  0.1285 -0.0579  0.5150
 1146SOL    HW1 4879   6.243   4.019  10.520 -0.0187  0.0998  0.3320
 1146SOL    HW2 4880   6.181   3.974  10.390  0.2533 -0.2714  0.3272
 1147SOL     OW 4881   0.409   3.603   4.616 -0.3448  0.1458 -0.3637
 1147SOL    HW1 4882   0.402   3.507   4.611 -0.3033  0.1364 -0.2440
 1147SOL    HW2 4883   0.393   3.623   4.708  1.1206  0.1405 -0.0901
 1148SOL     OW 4884   3.422   6.379   8.480  0.3218  0.4638 -0.1783
 1148SOL    HW1 4885   3.461   6.388   8.567  0.0109  0.1360 -0.0075
 1148SOL    HW2 4886   3.373   6.298   8.483 -2.0895  1.8434  0.2700
 1149SOL     OW 4887   0.996   0.983   8.796 -0.6475 -0.3708 -0.0485
 1149SOL    HW1 4888   1.086   1.006   8.818 -1.2623  0.4566  1.8412
 1149SOL    HW2 4889   0.993   0.985   8.701  0.9261  1.2377 -0.1078
 1150SOL     OW 4890   5.935   7.829   4.781  0.7764 -0.0524 -0.3492
 1150SOL    HW1 4891   5.944   7.778   4.700 -1.2254 -0.5504 -0.3134
 1150SOL    HW2 4892   5.850   7.872   4.772 -0.5263 -1.7847  2.3551
 1151SOL     OW 4893   0.022   4.013   0.277  0.5803 -0.3857  0.0941
 1151SOL    HW1 4894   0.006   4.069   0.201 -1.6297  1.4065  1.7339
 1151SOL    HW2 4895   0.008   3.924   0.244  1.4021  0.1852 -1.9567
 1152SOL     OW 4896   4.835   7.757  10.976 -1.0855  0.0097 -0.7324
 1152SOL    HW1 4897   4.763   7.786  11.032 -1.1427  0.7930 -1.1974
 1152SOL    HW2 4898   4.826   7.662  10.971  0.0285 -0.3664  2.1449
 1153SOL     OW 4899   2.620   5.343   8.430 -0.4800 -0.7237 -0.0087
 1153SOL    HW1 4900   2.533   5.353   8.392 -0.8484  0.5547  1.0777
 1153SOL    HW2 4901   2.667   5.422   8.403  1.8492 -3.1539 -4.0986
 1154SOL     OW 4902   5.079   6.350   7.317  0.3767  0.1658 -0.3474
 1154SOL    HW1 4903   5.111   6.282   7.375 -0.9196  0.6018  0.9419
 1154SOL    HW2 4904   5.065   6.306   7.233  2.6641 -0.3831 -0.4981
 1155SOL     OW 4905   0.818   5.669   7.644 -0.2315  0.3277 -0.0675
 1155SOL    HW1 4906   0.880   5.741   7.639 -0.1495  0.3721  1.2488
 1155SOL    HW2 4907   0.736   5.707   7.612 -0.1224  0.9395  0.3412
 1156SOL     OW 4908   3.676   4.682   8.613 -0.2911 -0.2380 -0.3635
 1156SOL    HW1 4909   3.647   4.766   8.576 -2.8621 -0.2590  1.3543
 1156SOL    HW2 4910   3.770   4.696   8.631 -0.2341  1.6168 -1.7383
 1157SOL     OW 4911   7.329   5.077  10.794  0.0850 -0.3612  0.4521
 1157SOL    HW1 4912   7.261   5.040  10.739 -0.0181  1.1486 -0.5104
 1157SOL    HW2 4913   7.351   5.008  10.856 -0.4425 -1.7940 -0.9019
 1158SOL     OW 4914   4.035   0.846   1.576 -0.5091  0.8196 -0.0667
 1158SOL    HW1 4915   4.083   0.850   1.493 -0.2815  1.7205  0.0904
 1158SOL    HW2 4916   3.946   0.873   1.553 -0.3183  1.5907  0.0571
 1159SOL     OW 4917   3.705   1.998  11.425  0.2379  0.5889  0.3781
 1159SOL    HW1 4918   3.671   1.988  11.514  1.5157  1.9556  1.0645
 1159SOL    HW2 4919   3.629   2.023  11.372 -0.8052 -1.5666  0.7687
 1160SOL     OW 4920   3.961   5.519   9.681  0.1954  0.0039 -0.0465
 1160SOL    HW1 4921   4.054   5.516   9.703  0.6162  0.5331 -1.6590
 1160SOL    HW2 4922   3.941   5.612   9.676 -0.4063 -0.1109  0.2050
 1161SOL     OW 4923   5.914   7.315   2.096 -0.3346  0.6065  0.0745
 1161SOL    HW1 4924   5.959   7.342   2.175  0.5328 -0.0235 -0.1855
 1161SOL    HW2 4925   5.844   7.257   2.127 -1.1641  1.7861  0.4974
 1162SOL     OW 4926   5.965   5.885  12.391 -0.1020  0.4829 -0.2436
 1162SOL    HW1 4927   5.958   5.892  12.296 -0.7494 -0.2465 -0.2591
 1162SOL    HW2 4928   5.875   5.883  12.422  0.0793 -0.7909  0.2549
 1163SOL     OW 4929   5.939   6.944   7.429  0.0118 -0.1396  0.4000
 1163SOL    HW1 4930   5.868   6.995   7.468 -0.2262 -0.0190 -0.1806
 1163SOL    HW2 4931   5.989   6.912   7.504 -0.6101 -0.1660  0.8119
 1164SOL     OW 4932   5.982   1.254   7.503 -0.1830  0.3085  0.3609
 1164SOL    HW1 4933   6.014   1.256   7.413  1.3600  1.3731  0.8939
 1164SOL    HW2 4934   5.897   1.297   7.499 -1.6402 -2.4015 -1.0515
 1165SOL     OW 4935   1.618   1.670   6.365  0.0660 -0.6819 -0.0344
 1165SOL    HW1 4936   1.568   1.752   6.366  1.8141  0.4477  0.2598
 1165SOL    HW2 4937   1.554   1.603   6.342 -1.3018  0.8553 -0.9774
 1166SOL     OW 4938   4.793   7.481  10.968 -0.3385 -0.6418 -0.0524
 1166SOL    HW1 4939   4.706   7.446  10.984 -0.4709 -1.7165 -2.6747
 1166SOL    HW2 4940   4.848   7.404  10.951  0.7705  0.1091 -0.0055
 1167SOL     OW 4941   3.375   0.196   5.886  0.1557  0.6400 -0.4423
 1167SOL    HW1 4942   3.382   0.176   5.793 -1.4645 -0.5292 -0.3482
 1167SOL    HW2 4943   3.438   0.138   5.928  2.3659  2.5805 -0.9199
 1168SOL     OW 4944   3.221   0.093   5.118  0.2002 -0.2586  0.5781
 1168SOL    HW1 4945   3.301   0.097   5.171  0.4394 -2.8259  0.5500
 1168SOL    HW2 4946   3.253   0.081   5.028 -0.1986 -0.8937  0.5158
 1169SOL     OW 4947   5.249   1.298  10.301 -0.3147  0.0058 -0.1598
 1169SOL    HW1 4948   5.273   1.243  10.376 -0.9362 -1.1550 -0.7750
 1169SOL    HW2 4949   5.154   1.286  10.293 -0.4056  0.9201 -0.5099
 1170SOL     OW 4950   4.349   3.649   7.455  0.7574 -0.1239  0.4399
 1170SOL    HW1 4951   4.366   3.559   7.429  1.5807 -0.7808  2.9860
 1170SOL    HW2 4952   4.261   3.667   7.423  0.3072 -2.0627  0.4892
 1171SOL     OW 4953   2.985   6.811   8.586 -0.1354  0.2064 -0.5254
 1171SOL    HW1 4954   3.001   6.805   8.492 -0.5925  1.1984 -0.6683
 1171SOL    HW2 4955   2.892   6.792   8.596 -0.1644  0.4712 -0.3015
 1172SOL     OW 4956   7.930   2.070   5.262  0.2077  0.3009 -0.2984
 1172SOL    HW1 4957   7.925   1.976   5.276  2.7587  0.5517  4.2088
 1172SOL    HW2 4958   7.860   2.106   5.317 -0.5737  1.1037 -1.7698
 1173SOL     OW 4959   7.846   4.391   9.372  0.1494 -0.1884 -0.3492
 1173SOL    HW1 4960   7.903   4.398   9.449  1.7286  0.5715 -1.5482
 1173SOL    HW2 4961   7.833   4.481   9.343 -0.2735 -0.4777 -1.0914
 1174SOL     OW 4962   2.475   1.907   9.545 -0.0730 -0.4160  0.1425
 1174SOL    HW1 4963   2.470   1.813   9.557  0.1490 -0.7164 -1.7949
 1174SOL    HW2 4964   2.565   1.930   9.568 -0.1024 -0.6883  0.5325
 1175SOL     OW 4965   2.921   6.132   7.807  0.1755 -0.4036 -0.5601
 1175SOL    HW1 4966   3.016   6.123   7.801  0.1542 -0.6692 -0.5200
 1175SOL    HW2 4967   2.888   6.097   7.724  0.1333  0.0346 -0.7290
 1176SOL     OW 4968   5.301   4.729   2.403  0.4811  0.4114  0.1015
 1176SOL    HW1 4969   5.324   4.813   2.445 -1.3957  0.4218  1.2295
 1176SOL    HW2 4970   5.355   4.665   2.449 -0.9247  0.5395  2.0940
 1177SOL     OW 4971   1.105   0.260   1.243 -0.7206 -0.1657  0.6356
 1177SOL    HW1 4972   1.182   0.312   1.268 -0.8932  0.7730 -0.6579
 1177SOL    HW2 4973   1.107   0.261   1.147 -1.5356 -1.3821  0.5945
 1178SOL     OW 4974   1.462   1.169   6.978  0.0136  0.0523 -0.1981
 1178SOL    HW1 4975   1.532   1.212   7.027  1.0721  0.2251 -1.7619
 1178SOL    HW2 4976   1.384   1.221   6.996  0.4924  0.4425  0.8237
 1179SOL     OW 4977   7.672   3.110  10.365 -0.0050 -0.0268  0.6626
 1179SOL    HW1 4978   7.611   3.107  10.291  2.2243 -0.3258 -1.2808
 1179SOL    HW2 4979   7.719   3.192  10.355  1.2023 -0.6530  0.9702
 1180SOL     OW 4980   0.351   7.279  11.190  0.1869 -0.1146 -0.1722
 1180SOL    HW1 4981   0.426   7.246  11.239 -0.6492 -1.7319  0.1071
 1180SOL    HW2 4982   0.279   7.277  11.253 -0.0444  1.7645 -0.3274
 1181SOL     OW 4983   1.695   2.028   1.358  1.0266  0.0812 -0.1103
 1181SOL    HW1 4984   1.632   1.975   1.407  2.0542  0.8297  2.1220
 1181SOL    HW2 4985   1.641   2.093   1.313  0.1475  0.6047  1.6101
 1182SOL     OW 4986   5.776   5.223   8.736 -0.2834  0.9076  0.3384
 1182SOL    HW1 4987   5.813   5.310   8.751 -1.6349  1.4597  0.7260
 1182SOL    HW2 4988   5.846   5.172   8.696  0.6382  2.0792  0.4238
 1183SOL     OW 4989   4.201   1.654   6.019  0.1421 -0.3599 -0.4935
 1183SOL    HW1 4990   4.289   1.617   6.027 -0.3947 -1.9416 -1.3180
 1183SOL    HW2 4991   4.147   1.581   5.988 -0.8875  1.2630 -2.8863
 1184SOL     OW 4992   7.543   5.279  10.711  0.4296 -0.6525 -0.4114
 1184SOL    HW1 4993   7.616   5.217  10.712 -0.4323 -1.7224 -1.1703
 1184SOL    HW2 4994   7.466   5.227  10.734  0.0636  0.7448  1.8844
 1185SOL     OW 4995   7.271   2.217   6.389 -0.1686 -0.1756  0.2131
 1185SOL    HW1 4996   7.312   2.297   6.422  3.0375 -1.7161  0.3150
 1185SOL    HW2 4997   7.236   2.173   6.467 -0.0910  0.1298  0.4185
 1186SOL     OW 4998   7.093   5.506  11.413  0.0281  0.3581  0.1646
 1186SOL    HW1 4999   7.168   5.489  11.357 -0.0251 -1.3859  0.5429
 1186SOL    HW2 5000   7.129   5.547  11.491  0.7607 -1.2396  0.7167
 1187SOL     OW 5001   6.770   1.654   7.494  0.0903 -0.8000 -0.3176
 1187SOL    HW1 5002   6.701   1.600   7.532 -0.1998  0.8785  1.7817
 1187SOL    HW2 5003   6.818   1.687   7.570  1.2706  0.5207 -1.5890
 1188SOL     OW 5004   0.059   4.681   1.106 -0.1014 -0.0705 -0.5252
 1188SOL    HW1 5005   0.132   4.736   1.133 -0.5108  1.7437 -2.8079
 1188SOL    HW2 5006  -0.016   4.741   1.102 -1.6022 -1.7177  1.0158
 1189SOL     OW 5007   2.532   7.027   2.009 -0.2527  0.6892 -0.3229
 1189SOL    HW1 5008   2.559   7.062   2.093  2.6291 -2.2809  0.1784
 1189SOL    HW2 5009   2.611   7.026   1.956 -1.4728  0.2821 -2.2441
 1190SOL     OW 5010   3.945   4.554   8.425  0.1738 -0.4003 -0.1036
 1190SOL    HW1 5011   3.894   4.477   8.449 -1.2774  0.7602  0.6999
 1190SOL    HW2 5012   3.946   4.608   8.504  0.2984  0.8537 -0.9298
 1191SOL     OW 5013   4.108   1.645   3.917  0.2805  0.1159 -0.2493
 1191SOL    HW1 5014   4.096   1.610   3.828 -1.7435  1.7401 -0.6878
 1191SOL    HW2 5015   4.047   1.595   3.971 -0.9813  1.3983 -0.4535
 1192SOL     OW 5016   7.191   2.902   2.066 -0.0941  0.7805 -0.7919
 1192SOL    HW1 5017   7.284   2.911   2.044  0.0346 -0.2538 -0.7215
 1192SOL    HW2 5018   7.176   2.808   2.066 -1.1750  0.9431 -0.9001
 1193SOL     OW 5019   3.656   4.025   0.073 -0.3406 -0.4196 -0.2110
 1193SOL    HW1 5020   3.683   4.059  -0.012  0.4685 -1.4186 -0.3687
 1193SOL    HW2 5021   3.615   3.941   0.053 -0.8685 -0.2976  0.3192
 1194SOL     OW 5022   7.432   1.270   8.489 -0.5082 -0.2834 -0.2996
 1194SOL    HW1 5023   7.516   1.267   8.444 -0.3959 -0.0372 -0.1073
 1194SOL    HW2 5024   7.417   1.180   8.517 -1.2761 -0.7590 -2.0904
 1195SOL     OW 5025   1.046   6.537   0.589  0.8691  0.7740 -0.3050
 1195SOL    HW1 5026   0.960   6.577   0.601 -0.6924 -1.7259 -2.1839
 1195SOL    HW2 5027   1.079   6.525   0.678 -2.1396 -0.9642  0.7202
 1196SOL     OW 5028   7.279   6.572  10.898 -0.3822  0.1068  0.2492
 1196SOL    HW1 5029   7.211   6.610  10.954 -1.2022 -0.2932 -0.4522
 1196SOL    HW2 5030   7.248   6.589  10.809  0.7703  0.5011 -0.0918
 1197SOL     OW 5031   0.289   4.343   1.017 -0.1884 -0.4016  0.8870
 1197SOL    HW1 5032   0.324   4.274   0.960 -0.7867  1.1244 -1.4826
 1197SOL    HW2 5033   0.367   4.382   1.058  0.5084 -0.1571 -0.6079
 1198SOL     OW 5034   7.487   4.725   4.079 -0.3453 -0.3200  0.9786
 1198SOL    HW1 5035   7.558   4.789   4.081 -1.0263  0.4692  0.4810
 1198SOL    HW2 5036   7.474   4.701   4.171  0.3567 -0.2492  1.1022
 1199SOL     OW 5037   6.702   3.786   5.872  0.3264 -0.4552  0.0372
 1199SOL    HW1 5038   6.742   3.737   5.943  2.8037 -0.6326 -1.3586
 1199SOL    HW2 5039   6.772   3.795   5.807 -1.4157  0.8950 -1.7725
 1200SOL     OW 5040   7.639   7.915   3.775 -0.2366 -0.4721 -0.9902
 1200SOL    HW1 5041   7.720   7.885   3.735 -0.6601 -1.0608 -1.4303
 1200SOL    HW2 5042   7.627   8.004   3.742  0.9886  0.1952  0.2562
 1201SOL     OW 5043   0.522   2.945   1.463 -0.0562 -0.6533 -0.5106
 1201SOL    HW1 5044   0.493   2.920   1.375 -0.0588 -1.0365 -0.4043
 1201SOL    HW2 5045   0.555   3.034   1.453 -1.2569 -0.1931 -0.6413
 1202SOL     OW 5046   4.632   6.069   4.615 -0.6495  0.3101  0.0249
 1202SOL    HW1 5047   4.545   6.044   4.584 -1.8227  2.3605  1.4533
 1202SOL    HW2 5048   4.675   6.106   4.537 -1.6202  0.6872 -0.3419
 1203SOL     OW 5049   5.710   5.821   8.829 -0.2997  0.2839 -0.2946
 1203SOL    HW1 5050   5.785   5.877   8.846  0.8390 -0.6749 -1.8106
 1203SOL    HW2 5051   5.638   5.882   8.814  0.7209  1.3491 -1.1466
 1204SOL     OW 5052   7.138   1.152   1.138 -0.6762 -0.0509  0.2399
 1204SOL    HW1 5053   7.227   1.171   1.168 -1.3337 -0.6100  2.7898
 1204SOL    HW2 5054   7.118   1.221   1.074  0.1393  2.5942  2.6625
 1205SOL     OW 5055   5.625   5.455   4.034 -0.6640 -0.1297 -0.3292
 1205SOL    HW1 5056   5.595   5.379   3.984 -1.2042 -0.9220  1.1421
 1205SOL    HW2 5057   5.719   5.440   4.046 -0.8818 -0.8991  0.4873
 1206SOL     OW 5058   2.247   1.640   0.640 -0.1046  0.1319 -0.6051
 1206SOL    HW1 5059   2.177   1.690   0.599  0.5590  0.4638 -1.3532
 1206SOL    HW2 5060   2.226   1.642   0.733 -0.5874  1.0067 -0.7198
 1207SOL     OW 5061   4.381   0.410  11.789 -0.4519 -0.1413  0.0398
 1207SOL    HW1 5062   4.471   0.386  11.766  0.2335  2.5756 -0.3923
 1207SOL    HW2 5063   4.387   0.441  11.879 -1.0109 -0.1420  0.0774
 1208SOL     OW 5064   5.165   0.275   9.557  0.4823 -0.0967 -0.5581
 1208SOL    HW1 5065   5.126   0.269   9.645  0.9024  2.4487 -0.1247
 1208SOL    HW2 5066   5.257   0.255   9.571  0.3587 -0.7694 -0.6443
 1209SOL     OW 5067   4.200   5.830   3.077 -0.1192  0.0075  0.0338
 1209SOL    HW1 5068   4.164   5.906   3.124 -0.6541 -0.9265  1.1852
 1209SOL    HW2 5069   4.164   5.754   3.123 -0.3525 -0.9691 -1.6640
 1210SOL     OW 5070   1.519   7.953   4.390 -0.2360 -0.3094  0.0274
 1210SOL    HW1 5071   1.595   7.924   4.439  0.1064 -0.8946 -0.8233
 1210SOL    HW2 5072   1.533   8.047   4.379  1.5761 -0.7389 -2.0800
 1211SOL     OW 5073   0.985   3.688  10.994 -0.1619  0.4044  0.0679
 1211SOL    HW1 5074   0.891   3.681  11.007 -0.3742  0.7435 -1.1921
 1211SOL    HW2 5075   1.005   3.779  11.015 -0.6931  1.2769 -2.8552
 1212SOL     OW 5076   0.501   3.981   3.760 -0.2164 -0.4841  0.0065
 1212SOL    HW1 5077   0.554   4.003   3.683 -0.0593 -0.5596  0.0914
 1212SOL    HW2 5078   0.566   3.963   3.829 -0.3529 -0.5930  0.1070
 1213SOL     OW 5079   5.613   2.020   8.171 -0.7559 -0.3101  0.1993
 1213SOL    HW1 5080   5.667   2.015   8.251 -0.0997  0.5523 -0.1727
 1213SOL    HW2 5081   5.669   1.984   8.102 -0.0283  1.9535 -0.4769
 1214SOL     OW 5082   3.763   6.745  10.170 -0.2164  0.0392 -0.4576
 1214SOL    HW1 5083   3.792   6.761  10.260  1.1414  0.8588 -0.9944
 1214SOL    HW2 5084   3.807   6.664  10.144 -1.3264 -0.6884 -0.1022
 1215SOL     OW 5085   2.124   3.453   5.515  0.0969 -0.2968 -0.2155
 1215SOL    HW1 5086   2.039   3.488   5.492  0.9678  0.8289 -1.9291
 1215SOL    HW2 5087   2.167   3.523   5.564  0.1479 -0.7799  0.4576
 1216SOL     OW 5088   0.326   6.565  11.506 -0.2889 -0.3318  0.0405
 1216SOL    HW1 5089   0.403   6.622  11.506  0.1603 -0.9213 -0.5451
 1216SOL    HW2 5090   0.262   6.611  11.452 -0.4867  0.3416  0.8469
 1217SOL     OW 5091   3.468   4.265   6.232  0.0416  0.4362 -0.1642
 1217SOL    HW1 5092   3.408   4.201   6.194 -0.3644 -0.3405  1.6942
 1217SOL    HW2 5093   3.463   4.340   6.173 -0.7591 -0.5887 -1.4666
 1218SOL     OW 5094   5.193   5.631  10.975 -0.1011 -0.5884 -0.3532
 1218SOL    HW1 5095   5.242   5.575  10.915 -0.0341 -0.6071 -0.2810
 1218SOL    HW2 5096   5.222   5.604  11.062  0.3048 -0.0928 -0.3326
 1219SOL     OW 5097   6.337   7.431   4.523 -0.1385 -0.3833 -0.6651
 1219SOL    HW1 5098   6.285   7.384   4.589 -1.0180 -0.0828 -1.1330
 1219SOL    HW2 5099   6.283   7.506   4.499  0.6925  0.1526 -0.8790
 1220SOL     OW 5100   7.795   5.685   8.172  0.0642 -0.0582  0.3154
 1220SOL    HW1 5101   7.757   5.773   8.174 -0.6009 -0.3293  0.1822
 1220SOL    HW2 5102   7.888   5.699   8.159  0.0775  0.6516  1.0580
 1221SOL     OW 5103   3.540   5.437   3.253 -0.5843 -0.0861 -0.3311
 1221SOL    HW1 5104   3.603   5.508   3.268 -1.1390  0.7655 -1.8092
 1221SOL    HW2 5105   3.457   5.473   3.284 -1.0789  0.3801 -2.1075
 1222SOL     OW 5106   1.207   6.134   5.151  0.1841  0.1706  0.1695
 1222SOL    HW1 5107   1.162   6.111   5.232  0.5176 -1.1884 -0.0081
 1222SOL    HW2 5108   1.169   6.218   5.126 -1.0377 -0.1342  0.9057
 1223SOL     OW 5109   2.749   0.957   1.049  0.1370  0.3443  0.1308
 1223SOL    HW1 5110   2.660   0.986   1.069 -0.0728 -1.1140  1.5720
 1223SOL    HW2 5111   2.785   0.931   1.134  1.3683 -0.6146 -0.6472
 1224SOL     OW 5112   0.689   3.485   4.919 -0.5218 -0.0147  0.2362
 1224SOL    HW1 5113   0.641   3.531   4.988 -1.1580 -0.2567 -0.0376
 1224SOL    HW2 5114   0.751   3.550   4.886 -1.3150  0.6201 -0.0452
 1225SOL     OW 5115   7.255   5.080   0.212  0.2196  0.5059 -0.3589
 1225SOL    HW1 5116   7.210   5.126   0.141  0.9722  0.4774 -0.8712
 1225SOL    HW2 5117   7.206   4.999   0.224  1.2437 -0.4659 -2.2715
 1226SOL     OW 5118   3.235   4.928   1.874  0.1794 -0.5305  0.4885
 1226SOL    HW1 5119   3.256   4.845   1.832  1.1141 -0.8716  1.5851
 1226SOL    HW2 5120   3.319   4.961   1.906 -0.3635  0.1727  1.2413
 1227SOL     OW 5121   3.828   4.426   1.261 -0.5400 -0.3387 -0.2843
 1227SOL    HW1 5122   3.901   4.404   1.204  0.6543  2.3021  0.0669
 1227SOL    HW2 5123   3.798   4.342   1.295  2.0260 -1.5760 -0.8148
 1228SOL     OW 5124   3.295   0.684   6.124 -0.3025 -0.1843  0.6701
 1228SOL    HW1 5125   3.200   0.677   6.112 -0.5218 -0.3849  2.2620
 1228SOL    HW2 5126   3.330   0.602   6.089 -0.5565  0.4453 -1.1308
 1229SOL     OW 5127   5.026   2.215   5.642 -0.5307 -0.1185 -0.3749
 1229SOL    HW1 5128   4.941   2.188   5.678 -1.0039 -0.7396 -1.8472
 1229SOL    HW2 5129   5.088   2.151   5.676 -1.1122 -1.1966 -1.2600
 1230SOL     OW 5130   1.682   6.272   4.658 -0.2580  0.1266  0.5216
 1230SOL    HW1 5131   1.637   6.340   4.607 -0.5941  0.7091  1.5503
 1230SOL    HW2 5132   1.757   6.317   4.697  0.1979 -0.3963  0.2596
 1231SOL     OW 5133   1.436   6.517   5.225 -0.0047  0.1145 -0.1703
 1231SOL    HW1 5134   1.384   6.593   5.200 -1.3061 -0.5811  0.3534
 1231SOL    HW2 5135   1.432   6.459   5.149  0.3450  0.2208 -0.2740
 1232SOL     OW 5136   7.046   3.362   9.354  0.5444  0.3731  0.1858
 1232SOL    HW1 5137   7.118   3.320   9.400 -1.1424 -0.9407  1.7809
 1232SOL    HW2 5138   6.996   3.406   9.422 -1.9039 -1.4241 -0.3093
 1233SOL     OW 5139   2.263   5.354   4.844 -0.5729 -0.1650  0.1769
 1233SOL    HW1 5140   2.222   5.418   4.786  0.2575  1.8310  1.6832
 1233SOL    HW2 5141   2.310   5.295   4.785 -1.5458  0.4529 -1.2798
 1234SOL     OW 5142   1.884   5.305   0.604 -0.0430  0.0091 -0.8558
 1234SOL    HW1 5143   1.799   5.268   0.578 -0.8808  0.4800  1.0690
 1234SOL    HW2 5144   1.943   5.282   0.532 -1.3030 -2.1781 -1.2777
 1235SOL     OW 5145   4.484   1.518   6.809  0.0997 -0.2251 -0.4234
 1235SOL    HW1 5146   4.475   1.426   6.784  1.0137 -0.1057 -1.2564
 1235SOL    HW2 5147   4.557   1.518   6.871  2.0153  0.2376 -2.5262
 1236SOL     OW 5148   2.613   3.559   7.559 -0.4900 -0.2026  0.2415
 1236SOL    HW1 5149   2.559   3.481   7.571 -0.8643  0.2267  1.5018
 1236SOL    HW2 5150   2.657   3.571   7.643  0.8084  0.0264 -0.4550
 1237SOL     OW 5151   2.734   0.368  11.315 -0.2634 -0.8266 -0.2694
 1237SOL    HW1 5152   2.691   0.440  11.267 -0.4802 -0.7160  0.0838
 1237SOL    HW2 5153   2.699   0.376  11.404  0.3515 -0.8532 -0.0248
 1238SOL     OW 5154   2.922   7.139   8.955  1.1073 -0.3136  0.2305
 1238SOL    HW1 5155   2.968   7.109   8.876 -1.0546  1.3584 -1.8273
 1238SOL    HW2 5156   2.980   7.204   8.993  1.5128  0.0583 -0.9627
 1239SOL     OW 5157   4.281   6.976   0.990  0.7700  0.3872  0.2211
 1239SOL    HW1 5158   4.349   6.932   1.041  1.8576  0.4424 -1.1140
 1239SOL    HW2 5159   4.296   6.947   0.900 -1.9496 -0.8064  0.0389
 1240SOL     OW 5160   0.264   1.783   6.149 -0.2802  0.3350  0.1996
 1240SOL    HW1 5161   0.347   1.793   6.195 -0.4732 -0.0739  0.6467
 1240SOL    HW2 5162   0.221   1.868   6.157  1.3120  1.5157 -2.5086
 1241SOL     OW 5163   4.418   6.488  10.195 -0.1246  0.1457  0.5812
 1241SOL    HW1 5164   4.448   6.476  10.285 -0.6167  0.6259  0.8183
 1241SOL    HW2 5165   4.336   6.537  10.204 -1.8260 -2.3673  0.0761
 1242SOL     OW 5166   7.603   1.498   2.659  0.1143  0.4129 -0.0542
 1242SOL    HW1 5167   7.637   1.532   2.742  2.0401  1.7197 -1.3051
 1242SOL    HW2 5168   7.621   1.404   2.662  0.9803  0.5875  0.6470
 1243SOL     OW 5169   0.874   5.665  10.505  0.0417 -0.2307  0.1947
 1243SOL    HW1 5170   0.910   5.751  10.528 -1.6249  0.9731 -1.4038
 1243SOL    HW2 5171   0.795   5.685  10.455 -0.2270 -2.7136 -0.4963
 1244SOL     OW 5172   2.528   1.705   2.208  0.4316 -0.0173  0.3252
 1244SOL    HW1 5173   2.614   1.725   2.245 -0.0965  1.1094  1.0132
 1244SOL    HW2 5174   2.476   1.784   2.225 -0.6556 -0.5696 -0.3312
 1245SOL     OW 5175   5.913   6.708   6.781 -0.2914 -0.2668 -0.1600
 1245SOL    HW1 5176   5.846   6.728   6.847  0.3338 -0.9624  0.7120
 1245SOL    HW2 5177   5.959   6.791   6.770 -0.4704 -0.1109  0.2035
 1246SOL     OW 5178   2.469   7.737  11.720 -0.3659  0.1334  0.5472
 1246SOL    HW1 5179   2.447   7.650  11.687  2.2133 -0.5579  0.5115
 1246SOL    HW2 5180   2.426   7.797  11.658  0.2697 -1.1289 -1.2038
 1247SOL     OW 5181   7.162   4.939  12.089 -0.0750  0.1230 -0.2470
 1247SOL    HW1 5182   7.095   4.872  12.095  1.1463 -1.4292 -2.3263
 1247SOL    HW2 5183   7.117   5.015  12.051 -1.3225  0.3189  1.5040
 1248SOL     OW 5184   5.861   5.365  11.200  0.4278 -0.1484 -0.2122
 1248SOL    HW1 5185   5.882   5.433  11.264 -0.4790  0.4281 -0.5142
 1248SOL    HW2 5186   5.766   5.355  11.206  0.5848 -1.7449  0.1658
 1249SOL     OW 5187   2.657   7.074   0.559  0.6560  0.0551  0.1470
 1249SOL    HW1 5188   2.748   7.075   0.529  0.4617 -0.2896 -0.4958
 1249SOL    HW2 5189   2.610   7.032   0.487 -0.2582  1.6435 -0.2101
 1250SOL     OW 5190   7.861   6.014   4.042  0.2898 -0.1073 -0.1370
 1250SOL    HW1 5191   7.833   6.081   3.980 -3.0635 -0.7238  0.5236
 1250SOL    HW2 5192   7.811   5.936   4.018  0.0271 -0.8077  2.3393
 1251SOL     OW 5193   0.529   0.534   1.970  0.5833 -0.0351  0.2310
 1251SOL    HW1 5194   0.447   0.511   2.013  1.0849 -0.3742  1.0266
 1251SOL    HW2 5195   0.532   0.629   1.974  1.0611 -0.0841  1.8330
 1252SOL     OW 5196   3.946   2.431   3.517  0.0963  0.1440 -0.2989
 1252SOL    HW1 5197   3.975   2.370   3.449 -1.1902 -1.8574  0.8475
 1252SOL    HW2 5198   3.918   2.375   3.589 -3.8176  1.8648 -0.2058
 1253SOL     OW 5199   2.305   7.374   6.330 -0.2616  0.0469 -0.1055
 1253SOL    HW1 5200   2.365   7.300   6.339 -1.1334 -0.6157  0.2907
 1253SOL    HW2 5201   2.220   7.335   6.312 -0.8344  0.9320  0.6032
 1254SOL     OW 5202   3.434   1.474   4.545  0.2164 -0.0089 -0.6874
 1254SOL    HW1 5203   3.445   1.474   4.450 -1.4558  1.3286 -0.9386
 1254SOL    HW2 5204   3.396   1.389   4.566 -2.7461  0.9027 -1.7723
 1255SOL     OW 5205   4.546   2.770   7.860 -0.2662  0.4533  0.2878
 1255SOL    HW1 5206   4.583   2.788   7.774  1.1281  1.2234  1.0145
 1255SOL    HW2 5207   4.466   2.823   7.864  1.0189  2.4933  0.4070
 1256SOL     OW 5208   2.763   0.693   5.382  0.6125  0.4317 -0.9221
 1256SOL    HW1 5209   2.846   0.645   5.380  0.2505 -0.2313 -0.4293
 1256SOL    HW2 5210   2.787   0.782   5.407  1.2234  0.3606 -1.2321
 1257SOL     OW 5211   2.081   1.801   2.941  0.1901 -0.3760  0.1995
 1257SOL    HW1 5212   1.999   1.846   2.921  0.3214 -1.1311 -2.5499
 1257SOL    HW2 5213   2.056   1.710   2.954  0.6312 -0.8547 -1.9189
 1258SOL     OW 5214   2.528   5.094   7.753 -0.4306  0.3956  0.0116
 1258SOL    HW1 5215   2.546   5.101   7.659 -1.3195  0.1763 -0.1846
 1258SOL    HW2 5216   2.515   5.000   7.768  1.3689  0.2064  0.6941
 1259SOL     OW 5217   6.414   2.707   4.794 -0.0652  0.1607  0.4269
 1259SOL    HW1 5218   6.368   2.751   4.722 -0.8383 -0.3052  0.6187
 1259SOL    HW2 5219   6.491   2.668   4.753 -0.2176  0.3497 -0.0496
 1260SOL     OW 5220   1.464   3.223   9.471 -0.2947 -0.9275 -0.4276
 1260SOL    HW1 5221   1.517   3.154   9.512  1.1106  1.0583  1.3462
 1260SOL    HW2 5222   1.391   3.236   9.531 -0.4636 -0.7402 -0.6734
 1261SOL     OW 5223   0.671   3.580  10.335  0.4610  0.2758  0.1154
 1261SOL    HW1 5224   0.588   3.593  10.288  1.6176 -0.0251 -2.1619
 1261SOL    HW2 5225   0.647   3.582  10.427 -2.0525  0.3664 -0.4679
 1262SOL     OW 5226   0.444   4.008   3.257  0.2020 -0.5174 -0.1175
 1262SOL    HW1 5227   0.510   3.954   3.301 -0.5052 -2.7711 -1.6165
 1262SOL    HW2 5228   0.371   4.013   3.319  0.2667 -1.3692  0.0448
 1263SOL     OW 5229   2.461   1.890   1.236  0.5868 -0.0193  0.2916
 1263SOL    HW1 5230   2.484   1.801   1.261  1.8713  0.3967  0.6581
 1263SOL    HW2 5231   2.541   1.940   1.248 -0.2309  1.2847  0.5281
 1264SOL     OW 5232   3.469   5.603   5.608  0.1747  0.0631  0.2750
 1264SOL    HW1 5233   3.447   5.564   5.523 -0.5551  0.8243  0.1000
 1264SOL    HW2 5234   3.556   5.640   5.595  0.7341 -1.1868  0.3457
 1265SOL     OW 5235   2.841   5.154   6.830  0.0988  0.5777  0.5166
 1265SOL    HW1 5236   2.891   5.231   6.858  1.6060 -0.1370 -0.1037
 1265SOL    HW2 5237   2.841   5.097   6.906  2.6921 -0.6112 -0.2797
 1266SOL     OW 5238   5.632   3.289   5.448  0.2332 -0.0711 -0.5108
 1266SOL    HW1 5239   5.697   3.352   5.481 -0.2733  1.1108 -1.6607
 1266SOL    HW2 5240   5.579   3.268   5.525  0.2605  1.1093 -0.1424
 1267SOL     OW 5241   7.165   6.876   0.323 -0.4929  0.0028 -0.4875
 1267SOL    HW1 5242   7.122   6.885   0.238 -0.0332 -0.9480 -0.8384
 1267SOL    HW2 5243   7.161   6.963   0.362 -1.3419  0.2851 -1.1778
 1268SOL     OW 5244   7.799   4.033   6.092 -0.0916 -0.2926  0.3853
 1268SOL    HW1 5245   7.805   4.107   6.032  0.8198  0.2022  1.0414
 1268SOL    HW2 5246   7.890   4.012   6.113 -0.3765 -0.4695  1.5478
 1269SOL     OW 5247   5.874   6.062   9.225 -0.0084  0.0896  0.0530
 1269SOL    HW1 5248   5.824   6.126   9.174  0.6645  0.0454 -0.6897
 1269SOL    HW2 5249   5.917   6.113   9.293 -1.5577  0.0390  1.1243
 1270SOL     OW 5250   1.320   0.683   7.601  0.3030  0.1740  0.0856
 1270SOL    HW1 5251   1.236   0.639   7.609 -0.7890  1.8601 -1.2764
 1270SOL    HW2 5252   1.360   0.644   7.522  0.6096 -0.2921  0.4629
 1271SOL     OW 5253   1.379   3.644   2.222  0.5427  0.4923  0.2260
 1271SOL    HW1 5254   1.379   3.554   2.255 -2.7902  0.4956  0.5246
 1271SOL    HW2 5255   1.357   3.698   2.297 -1.0097  1.1506 -0.6501
 1272SOL     OW 5256   2.877   2.448   3.660  0.4689 -0.2168 -0.3789
 1272SOL    HW1 5257   2.931   2.523   3.686 -0.3778  0.2360  0.1192
 1272SOL    HW2 5258   2.939   2.386   3.622  1.4052  0.1063  0.5680
 1273SOL     OW 5259   7.508   7.543   9.596  0.4218 -0.1671  0.4790
 1273SOL    HW1 5260   7.476   7.527   9.684 -0.2944  1.6973  0.6118
 1273SOL    HW2 5261   7.440   7.596   9.554  0.5444 -1.3455 -1.3604
 1274SOL     OW 5262   0.064   6.155  10.149  0.1244  0.4663  0.6167
 1274SOL    HW1 5263   0.095   6.169  10.059 -0.9505 -0.9342 -0.0219
 1274SOL    HW2 5264   0.133   6.192  10.204  2.1278 -1.0221 -0.7343
 1275SOL     OW 5265   5.944   0.278   6.069  0.0344  0.3830 -0.5360
 1275SOL    HW1 5266   5.869   0.294   6.127  1.2439  3.1293  0.4139
 1275SOL    HW2 5267   6.007   0.231   6.124  0.6771  1.8741  0.0419
 1276SOL     OW 5268   7.708   5.869   9.768 -0.2924 -0.2142  0.3564
 1276SOL    HW1 5269   7.737   5.880   9.859  2.0992  0.6438 -0.4478
 1276SOL    HW2 5270   7.615   5.845   9.776  0.0235 -0.8741  3.0265
 1277SOL     OW 5271   6.882   7.139   9.060 -0.1458 -1.1612 -0.0065
 1277SOL    HW1 5272   6.813   7.184   9.011  0.0042  0.2564  1.0205
 1277SOL    HW2 5273   6.943   7.108   8.993 -2.0113 -2.9086 -0.9698
 1278SOL     OW 5274   2.652   1.055   9.331  0.6453  0.3131  0.4474
 1278SOL    HW1 5275   2.579   1.118   9.326 -0.4578 -0.8144  1.6266
 1278SOL    HW2 5276   2.610   0.972   9.353  2.3657 -0.2384  1.8293
 1279SOL     OW 5277   2.614   3.794   8.338  0.1032 -0.3914 -0.5164
 1279SOL    HW1 5278   2.664   3.818   8.417 -1.6466 -1.1353  0.8914
 1279SOL    HW2 5279   2.677   3.749   8.282  1.6092  0.9042  0.0501
 1280SOL     OW 5280   5.718   5.084   3.892  0.5922 -0.1167  0.0083
 1280SOL    HW1 5281   5.714   5.053   3.802  2.9623  1.6772 -0.8182
 1280SOL    HW2 5282   5.794   5.038   3.930 -1.4769 -2.3159  1.8115
 1281SOL     OW 5283   4.392   3.025   9.500  0.0619  0.0791 -0.0400
 1281SOL    HW1 5284   4.334   3.089   9.541 -0.7843 -0.0814 -0.9494
 1281SOL    HW2 5285   4.386   3.043   9.407  1.1346 -0.2435 -0.1848
 1282SOL     OW 5286   4.036   0.727  11.576  0.3362  0.2022  0.0474
 1282SOL    HW1 5287   4.061   0.805  11.627  1.0240  0.0709 -0.0767
 1282SOL    HW2 5288   3.941   0.729  11.574  0.3510  1.0446  0.0422
 1283SOL     OW 5289   1.182   6.628  11.324  0.2893 -0.3194 -0.0584
 1283SOL    HW1 5290   1.107   6.674  11.361  0.6052  1.9402 -1.9416
 1283SOL    HW2 5291   1.237   6.698  11.289  1.8435 -2.0742 -1.2995
 1284SOL     OW 5292   4.340   7.778   5.644  0.3052 -0.4622 -0.7941
 1284SOL    HW1 5293   4.393   7.845   5.600 -0.9088  0.5101 -0.8312
 1284SOL    HW2 5294   4.404   7.719   5.683  1.4507  1.2792  0.1085
 1285SOL     OW 5295   3.732   1.277   3.243 -0.2281  0.3424 -0.2755
 1285SOL    HW1 5296   3.776   1.198   3.215  0.5892  1.4199 -2.2076
 1285SOL    HW2 5297   3.666   1.294   3.176  0.8949  2.2927 -0.9671
 1286SOL     OW 5298   7.211   1.437   4.354 -0.4421 -0.3729 -0.3830
 1286SOL    HW1 5299   7.238   1.364   4.409  0.2454 -0.2235 -0.5156
 1286SOL    HW2 5300   7.281   1.447   4.290 -0.9708 -0.1890 -0.9446
 1287SOL     OW 5301   1.248   2.153   4.006 -0.3905 -0.4156  0.3616
 1287SOL    HW1 5302   1.288   2.240   3.996 -1.3887 -0.1622 -2.2451
 1287SOL    HW2 5303   1.310   2.093   3.965 -1.1454 -0.4545 -0.7696
 1288SOL     OW 5304   2.056   3.317   4.897 -0.5229  0.2925  0.0567
 1288SOL    HW1 5305   2.144   3.344   4.869  0.1737 -1.6615  0.2267
 1288SOL    HW2 5306   2.000   3.392   4.876  0.8232  0.8294 -1.8829
 1289SOL     OW 5307   0.422   4.718  12.364  0.2648  0.0212 -0.2573
 1289SOL    HW1 5308   0.359   4.790  12.360 -0.5448 -0.6203  0.5046
 1289SOL    HW2 5309   0.370   4.640  12.342  0.9426 -0.4292 -0.2754
 1290SOL     OW 5310   0.056   6.422   8.516  0.2103  0.0288  0.3395
 1290SOL    HW1 5311  -0.020   6.480   8.519 -0.5481 -0.9517  0.8431
 1290SOL    HW2 5312   0.063   6.396   8.425  0.1381  0.3834  0.2317
 1291SOL     OW 5313   6.303   3.443  10.670  0.1385  0.4870 -0.1733
 1291SOL    HW1 5314   6.241   3.423  10.740  2.0522 -0.4374  1.3314
 1291SOL    HW2 5315   6.308   3.363  10.618  1.2653 -0.0177  0.6833
 1292SOL     OW 5316   1.237   2.418  10.668 -0.2265 -0.5236  0.3044
 1292SOL    HW1 5317   1.146   2.397  10.647 -0.1632  0.3298 -0.9325
 1292SOL    HW2 5318   1.235   2.511  10.692  0.7768  0.5698 -3.2602
 1293SOL     OW 5319   1.086   3.937  11.570  0.0679 -0.1214 -0.2232
 1293SOL    HW1 5320   1.115   4.029  11.568 -0.6275  0.0963 -1.3267
 1293SOL    HW2 5321   1.077   3.913  11.477 -0.4733 -1.0810  0.0671
 1294SOL     OW 5322   1.129   0.252   7.389 -0.2983  0.2593  0.0530
 1294SOL    HW1 5323   1.105   0.160   7.386  0.4328 -0.0670  2.0910
 1294SOL    HW2 5324   1.195   0.262   7.320 -0.8954 -0.5692 -0.6540
 1295SOL     OW 5325   1.669   2.764  11.701 -0.6358 -0.0046  0.0269
 1295SOL    HW1 5326   1.644   2.712  11.624 -0.5357 -0.8151  0.5233
 1295SOL    HW2 5327   1.640   2.853  11.681  3.5532  0.9428 -3.0031
 1296SOL     OW 5328   0.063   5.731  10.391 -0.4815  0.8605 -0.3452
 1296SOL    HW1 5329   0.029   5.815  10.360  0.0117  0.5356 -1.8338
 1296SOL    HW2 5330  -0.015   5.681  10.416 -0.8669  1.2594 -0.7468
 1297SOL     OW 5331   7.641   7.482   0.218 -0.1556 -0.5604 -0.4183
 1297SOL    HW1 5332   7.626   7.479   0.313  1.3892  1.5619 -0.0275
 1297SOL    HW2 5333   7.620   7.572   0.194  1.6131 -0.4388 -1.6610
 1298SOL     OW 5334   7.965   0.122   9.632  0.2232  0.2767  0.3788
 1298SOL    HW1 5335   7.933   0.048   9.683 -0.8591 -0.7140 -1.6583
 1298SOL    HW2 5336   7.987   0.086   9.547 -0.8264  2.3388 -0.8529
 1299SOL     OW 5337   3.183   1.174  11.445  0.0225  0.5990  0.1926
 1299SOL    HW1 5338   3.224   1.211  11.523  1.3119 -1.1959  0.4299
 1299SOL    HW2 5339   3.256   1.147  11.390 -0.8308 -0.7609 -0.3356
 1300SOL     OW 5340   7.254   5.593   0.398 -0.0673  0.2045  0.7158
 1300SOL    HW1 5341   7.258   5.555   0.309  0.3089  1.7265  0.0563
 1300SOL    HW2 5342   7.335   5.644   0.406  0.7372 -1.2568  2.6065
 1301SOL     OW 5343   5.587   2.306   5.273  0.7469  0.0536 -0.0294
 1301SOL    HW1 5344   5.598   2.214   5.297  0.2238  0.4008  1.6917
 1301SOL    HW2 5345   5.676   2.337   5.254  0.9564 -0.7367 -0.3648
 1302SOL     OW 5346   3.277   5.446   1.588  0.2132  0.2376  0.0308
 1302SOL    HW1 5347   3.364   5.422   1.618  0.5531  0.7283 -0.5497
 1302SOL    HW2 5348   3.222   5.372   1.613  1.0504 -0.6928 -0.8039
 1303SOL     OW 5349   2.861   2.204   6.731  0.1371 -0.0372 -0.5037
 1303SOL    HW1 5350   2.827   2.289   6.704 -1.3568 -0.1693  0.8171
 1303SOL    HW2 5351   2.931   2.225   6.794 -0.7667  0.2259  0.4303
 1304SOL     OW 5352   6.443   6.975   8.072 -0.3398 -0.9311 -0.3465
 1304SOL    HW1 5353   6.520   6.959   8.017  0.4204  0.4699  0.2790
 1304SOL    HW2 5354   6.475   6.965   8.161 -0.9756 -0.6759 -0.0876
 1305SOL     OW 5355   1.705   0.790   5.617 -0.3021 -0.6927  0.1959
 1305SOL    HW1 5356   1.735   0.702   5.637 -0.7852 -0.8129  0.4336
 1305SOL    HW2 5357   1.714   0.799   5.522 -1.7711 -1.5959 -0.0592
 1306SOL     OW 5358   4.978   1.647   4.822 -0.3125  0.0395 -0.1135
 1306SOL    HW1 5359   4.988   1.606   4.736  0.3890 -0.7743  0.3244
 1306SOL    HW2 5360   5.068   1.664   4.850 -0.4950 -0.3191  0.7268
 1307SOL     OW 5361   6.747   7.822   7.001  1.0858  0.2392 -0.2298
 1307SOL    HW1 5362   6.754   7.915   6.979  1.4319  0.4478  0.6940
 1307SOL    HW2 5363   6.745   7.821   7.097  1.6599 -0.7419 -0.2176
 1308SOL     OW 5364   1.068   4.707   1.340  0.2864  0.1856 -0.2072
 1308SOL    HW1 5365   0.985   4.677   1.377 -0.2540 -1.2391 -2.4024
 1308SOL    HW2 5366   1.060   4.803   1.340 -0.0679  0.2209  2.3044
 1309SOL     OW 5367   0.914   1.517   0.337 -0.3676  0.3687 -0.4875
 1309SOL    HW1 5368   0.925   1.423   0.351 -1.4339  0.3975  0.7119
 1309SOL    HW2 5369   0.957   1.534   0.253 -0.9672 -1.3580 -1.1940
 1310SOL     OW 5370   4.189   1.780   0.450 -0.1660 -0.1517  0.2081
 1310SOL    HW1 5371   4.145   1.834   0.515  1.3495 -0.0781  1.2368
 1310SOL    HW2 5372   4.270   1.827   0.431 -0.9236  0.2577 -2.4019
 1311SOL     OW 5373   6.765   3.797   0.525  0.0232  0.7946 -0.0285
 1311SOL    HW1 5374   6.827   3.759   0.587  0.3891  1.5564  0.0875
 1311SOL    HW2 5375   6.700   3.729   0.511 -0.0053  0.5595  1.1093
 1312SOL     OW 5376   3.108   5.253   1.083 -0.2052 -0.3115 -0.0114
 1312SOL    HW1 5377   3.049   5.190   1.041 -1.7744  1.7925 -1.2071
 1312SOL    HW2 5378   3.071   5.266   1.170  1.3191 -2.4790  1.0249
 1313SOL     OW 5379   2.645   7.851   5.144  0.4529  0.2721  0.0496
 1313SOL    HW1 5380   2.634   7.810   5.229 -1.8264  0.3988 -0.1332
 1313SOL    HW2 5381   2.620   7.942   5.158 -4.4349 -0.5368 -1.5015
 1314SOL     OW 5382   5.348   0.204  11.202 -0.5613  0.3463  0.1777
 1314SOL    HW1 5383   5.352   0.244  11.289 -0.7626 -0.6754  0.6676
 1314SOL    HW2 5384   5.409   0.131  11.207 -1.3928 -0.3804 -0.1832
 1315SOL     OW 5385   5.300   3.532   0.439  0.0602 -0.1752 -0.0633
 1315SOL    HW1 5386   5.379   3.576   0.408  0.1390 -0.7737 -0.7414
 1315SOL    HW2 5387   5.318   3.439   0.424 -1.0197 -0.2772 -0.8017
 1316SOL     OW 5388   5.251   3.422  10.995  0.4432  0.2088  0.2634
 1316SOL    HW1 5389   5.202   3.415  10.913  1.3733 -1.0407 -0.2243
 1316SOL    HW2 5390   5.204   3.364  11.055  1.3860 -1.1325 -0.2573
 1317SOL     OW 5391   4.295   7.274   4.352 -0.1491  0.1361 -0.2273
 1317SOL    HW1 5392   4.234   7.205   4.376  0.1429  0.3519  1.1850
 1317SOL    HW2 5393   4.265   7.303   4.265  0.1913 -2.2632 -1.2232
 1318SOL     OW 5394   1.871   2.888   8.494  0.4981 -0.0020  0.3088
 1318SOL    HW1 5395   1.913   2.805   8.518  0.2851 -0.1784  0.0780
 1318SOL    HW2 5396   1.840   2.924   8.577  2.3018  0.8096  0.6910
 1319SOL     OW 5397   4.950   7.344  11.773  0.0815  0.4501  0.2059
 1319SOL    HW1 5398   4.906   7.258  11.775  1.0540 -0.0716 -0.3913
 1319SOL    HW2 5399   5.039   7.325  11.802  1.0558  0.7991 -2.3979
 1320SOL     OW 5400   7.749   2.325  12.330  0.0197  0.3724  0.2410
 1320SOL    HW1 5401   7.799   2.324  12.248  0.4398  2.0468  0.4347
 1320SOL    HW2 5402   7.659   2.304  12.303  0.1359  1.0084 -0.6819
 1321SOL     OW 5403   6.638   5.664   0.490  0.7390  0.3677  0.3111
 1321SOL    HW1 5404   6.572   5.674   0.558  1.2968 -1.3866  1.1712
 1321SOL    HW2 5405   6.587   5.653   0.409 -0.0068  0.0406  0.8104
 1322SOL     OW 5406   7.348   4.654  10.336 -0.1019  0.0900  0.0121
 1322SOL    HW1 5407   7.341   4.643  10.241 -2.0174 -2.2879  0.3400
 1322SOL    HW2 5408   7.271   4.706  10.359 -1.1725 -1.6247  0.4946
 1323SOL     OW 5409   1.930   5.091   9.578 -0.1198  0.3010  0.2504
 1323SOL    HW1 5410   1.840   5.123   9.566  0.1076  0.3702 -1.4242
 1323SOL    HW2 5411   1.937   5.015   9.520  0.2103 -1.1939  2.1147
 1324SOL     OW 5412   0.971   4.310   1.496  0.3945  0.3617 -0.0201
 1324SOL    HW1 5413   1.041   4.248   1.516 -0.2685 -0.0194  1.2691
 1324SOL    HW2 5414   0.950   4.350   1.580 -1.3006  0.0570 -0.2560
 1325SOL     OW 5415   2.986   1.423   7.915  0.4110  0.1138  0.6666
 1325SOL    HW1 5416   2.931   1.501   7.909  0.6353  0.1495 -1.7933
 1325SOL    HW2 5417   3.011   1.404   7.825 -0.1864 -3.2121  1.0705
 1326SOL     OW 5418   4.128   1.894   3.122  0.0443  0.0781 -0.1502
 1326SOL    HW1 5419   4.177   1.927   3.197 -0.0691  1.5950 -0.7135
 1326SOL    HW2 5420   4.140   1.960   3.054 -0.5620 -0.8484 -1.1928
 1327SOL     OW 5421   5.625   5.368   9.457  0.2009 -0.1526  0.2157
 1327SOL    HW1 5422   5.540   5.332   9.482  0.0694  0.6791  1.0443
 1327SOL    HW2 5423   5.652   5.317   9.381 -1.4432  0.1232 -0.5903
 1328SOL     OW 5424   0.732   4.273  10.617  0.3184 -0.0930 -0.1164
 1328SOL    HW1 5425   0.677   4.304  10.545 -3.1991 -1.7757  1.6295
 1328SOL    HW2 5426   0.768   4.190  10.584 -0.3832 -0.3154 -0.3498
 1329SOL     OW 5427   0.289   4.040   5.055  0.2997 -0.2962  0.2571
 1329SOL    HW1 5428   0.248   4.052   4.969 -1.6406  1.7616  1.3480
 1329SOL    HW2 5429   0.382   4.056   5.039  0.4151 -2.4487 -1.8479
 1330SOL     OW 5430   7.475   7.173   7.226 -0.4495 -0.0022  0.5517
 1330SOL    HW1 5431   7.447   7.091   7.268  0.1621 -0.2844  0.4293
 1330SOL    HW2 5432   7.571   7.170   7.231 -0.4317  1.1732  1.4294
 1331SOL     OW 5433   1.864   3.000   0.915 -0.0225  0.1224  0.5093
 1331SOL    HW1 5434   1.860   3.093   0.892  0.9635 -0.0089 -0.2626
 1331SOL    HW2 5435   1.899   2.958   0.837  0.1913 -0.8140  1.0976
 1332SOL     OW 5436   4.114   6.089   5.608 -0.3866 -0.1673 -0.2059
 1332SOL    HW1 5437   4.022   6.090   5.633 -0.2360 -0.8167  0.4048
 1332SOL    HW2 5438   4.160   6.060   5.686  0.4054  0.7074 -0.3270
 1333SOL     OW 5439   0.531   1.164   5.302 -0.1884  0.8285  0.7206
 1333SOL    HW1 5440   0.583   1.164   5.222 -0.1097 -0.8683  0.7411
 1333SOL    HW2 5441   0.565   1.238   5.353  0.0720  1.6364 -0.5909
 1334SOL     OW 5442   4.901   0.776   0.193  0.0112  0.4900 -0.6906
 1334SOL    HW1 5443   4.828   0.774   0.131  0.2499 -1.2392 -0.9886
 1334SOL    HW2 5444   4.867   0.734   0.272  0.1768  1.2505 -0.2083
 1335SOL     OW 5445   4.117   6.544   2.148  0.3955 -0.4400 -0.2045
 1335SOL    HW1 5446   4.099   6.620   2.203  2.3208 -1.0848  1.4275
 1335SOL    HW2 5447   4.097   6.573   2.059  0.1496  1.6389  0.4859
 1336SOL     OW 5448   3.517   5.876  12.224  0.0313  0.0507 -0.4511
 1336SOL    HW1 5449   3.444   5.841  12.173  1.4218  1.8511 -4.0256
 1336SOL    HW2 5450   3.561   5.799  12.259 -0.9885 -1.3473 -2.0842
 1337SOL     OW 5451   4.104   2.522  12.227  0.5879 -0.5999  0.0480
 1337SOL    HW1 5452   4.073   2.598  12.178 -0.0601 -2.3542 -2.4275
 1337SOL    HW2 5453   4.029   2.495  12.279  0.8276  0.4143  0.9572
 1338SOL     OW 5454   5.308   6.955   2.886 -0.0138 -0.4727  0.3218
 1338SOL    HW1 5455   5.292   7.049   2.898  1.0912 -0.3801  1.3308
 1338SOL    HW2 5456   5.391   6.951   2.838  0.2577 -0.9185  0.8096
 1339SOL     OW 5457   6.285   7.740   0.845 -0.0750  0.0337  0.4687
 1339SOL    HW1 5458   6.321   7.745   0.756  1.3569 -1.7561  0.8945
 1339SOL    HW2 5459   6.348   7.786   0.900 -0.5339  0.4169  0.6806
 1340SOL     OW 5460   4.961   4.608   3.276  0.4334 -0.2459  0.0260
 1340SOL    HW1 5461   4.925   4.678   3.222  0.2273  0.3585  0.9321
 1340SOL    HW2 5462   4.904   4.533   3.257  0.1264  0.0630 -0.3036
 1341SOL     OW 5463   7.158   7.848   0.210  0.4407  0.0622  0.3630
 1341SOL    HW1 5464   7.229   7.838   0.273  0.2643  0.9055  0.7094
 1341SOL    HW2 5465   7.078   7.833   0.262  0.2325  1.9099  0.6257
 1342SOL     OW 5466   6.133   3.665   4.394 -0.3683 -0.5193  0.0046
 1342SOL    HW1 5467   6.100   3.638   4.308 -0.8106  2.6207 -0.9425
 1342SOL    HW2 5468   6.085   3.746   4.414  0.1820 -0.8112  2.9423
 1343SOL     OW 5469   7.917   2.043   8.096  0.2300 -0.3369  0.4652
 1343SOL    HW1 5470   7.985   1.992   8.052  3.3034  2.1730  1.8335
 1343SOL    HW2 5471   7.926   2.020   8.189 -1.6216 -0.7276  0.5963
 1344SOL     OW 5472   7.396   0.263   3.399 -0.3503  0.2638  0.1594
 1344SOL    HW1 5473   7.424   0.242   3.309 -0.1106 -1.5468  0.6195
 1344SOL    HW2 5474   7.458   0.330   3.427 -0.4144  0.8461 -1.0181
 1345SOL     OW 5475   4.908   4.609   4.993 -0.5200  0.7280 -0.1229
 1345SOL    HW1 5476   4.895   4.561   4.911  2.8684 -1.0273  0.1936
 1345SOL    HW2 5477   4.841   4.573   5.052 -0.7131 -0.6255 -1.1037
 1346SOL     OW 5478   2.099   5.721  10.264 -0.4290  0.6297 -0.6448
 1346SOL    HW1 5479   2.161   5.749  10.331 -0.5326  2.2818 -1.2042
 1346SOL    HW2 5480   2.127   5.766  10.184 -1.0931 -0.2675 -1.4137
 1347SOL     OW 5481   4.611   4.326  11.520 -0.2940  0.1314  0.0071
 1347SOL    HW1 5482   4.696   4.348  11.482 -0.0403  0.4485  0.7458
 1347SOL    HW2 5483   4.565   4.280  11.450 -0.2884  1.7381 -1.0824
 1348SOL     OW 5484   7.007   7.493   3.104  0.1252 -0.0065 -0.2342
 1348SOL    HW1 5485   7.070   7.463   3.039  1.8451  1.6787  0.5736
 1348SOL    HW2 5486   6.990   7.585   3.081 -0.1759  0.2572  0.9731
 1349SOL     OW 5487   1.963   4.792   6.117  0.2549  0.6916 -0.5289
 1349SOL    HW1 5488   1.982   4.848   6.193  0.1817 -0.4893  0.3963
 1349SOL    HW2 5489   1.913   4.718   6.153 -0.2841  0.3906 -1.8311
 1350SOL     OW 5490   3.997   1.730   8.660 -0.5213  0.1476  0.2667
 1350SOL    HW1 5491   3.905   1.746   8.679 -0.9421 -2.6435  0.9594
 1350SOL    HW2 5492   4.001   1.719   8.565 -0.9171  0.1964  0.2446
 1351SOL     OW 5493   1.937   3.524   0.120 -0.5428  0.4771 -0.0849
 1351SOL    HW1 5494   1.856   3.576   0.113 -0.5858  0.3013 -0.9671
 1351SOL    HW2 5495   1.924   3.451   0.061 -0.2504 -0.2600  0.7456
 1352SOL     OW 5496   6.192   6.669   2.319  0.3928 -0.1685  0.1303
 1352SOL    HW1 5497   6.285   6.675   2.342  1.1612 -1.1849 -2.3836
 1352SOL    HW2 5498   6.188   6.696   2.227 -1.5004 -2.0112 -0.4113
 1353SOL     OW 5499   3.099   5.789   8.358 -0.0569 -0.2363 -0.5472
 1353SOL    HW1 5500   3.068   5.846   8.428  1.4394  0.9700 -0.8188
 1353SOL    HW2 5501   3.194   5.788   8.367  0.0461 -1.5792 -1.4165
 1354SOL     OW 5502   3.642   1.093   2.648  0.1031 -0.1719 -0.1046
 1354SOL    HW1 5503   3.629   1.177   2.604  2.1517 -1.0382 -2.5730
 1354SOL    HW2 5504   3.565   1.042   2.625 -0.1038  0.2871 -0.4597
 1355SOL     OW 5505   2.027   5.870   9.098 -0.3834 -0.3682 -0.3737
 1355SOL    HW1 5506   2.119   5.854   9.078 -0.8341 -2.2240 -1.2143
 1355SOL    HW2 5507   2.000   5.939   9.038  0.1798 -0.6239 -0.9283
 1356SOL     OW 5508   3.176   0.513   5.622 -0.4515  0.0440  0.2639
 1356SOL    HW1 5509   3.228   0.433   5.628  1.9976  1.4259 -0.8701
 1356SOL    HW2 5510   3.149   0.531   5.712  0.8021 -0.9229  0.8626
 1357SOL     OW 5511   1.786   5.629  11.415  0.1977  0.0200 -0.2777
 1357SOL    HW1 5512   1.811   5.577  11.492 -2.2363  0.0732  0.6047
 1357SOL    HW2 5513   1.746   5.708  11.451 -1.5024 -0.2186 -1.5764
 1358SOL     OW 5514   5.552   7.521  11.439  0.4009 -0.4600 -0.7252
 1358SOL    HW1 5515   5.545   7.500  11.532  0.9761 -2.4088 -1.0839
 1358SOL    HW2 5516   5.624   7.585  11.435 -0.2623  0.3853  0.2395
 1359SOL     OW 5517   5.782   6.969   6.020  0.1502  0.0666  0.2039
 1359SOL    HW1 5518   5.813   7.005   5.937  0.7221 -3.4858 -1.3009
 1359SOL    HW2 5519   5.722   7.036   6.054 -0.0550  1.7336 -3.0028
 1360SOL     OW 5520   3.099   3.905   4.826  0.3601  0.7068  0.3134
 1360SOL    HW1 5521   3.004   3.919   4.828 -0.1783 -2.3731  1.4974
 1360SOL    HW2 5522   3.126   3.940   4.741 -2.0306  0.6468 -0.5673
 1361SOL     OW 5523   4.525   4.744   4.680 -0.0001  0.0790  0.0313
 1361SOL    HW1 5524   4.558   4.826   4.642  1.2411  0.2218  1.3280
 1361SOL    HW2 5525   4.512   4.765   4.773  0.6541 -1.2853  0.4488
 1362SOL     OW 5526   1.809   2.259   6.678  0.1397 -0.1995  0.2335
 1362SOL    HW1 5527   1.808   2.185   6.738  0.9961  2.9765  4.6821
 1362SOL    HW2 5528   1.730   2.309   6.700 -0.0015  0.6765 -2.0185
 1363SOL     OW 5529   5.467   6.427   8.901  0.0598  0.0214 -0.2144
 1363SOL    HW1 5530   5.442   6.377   8.823  0.3607 -1.1906  0.4409
 1363SOL    HW2 5531   5.395   6.413   8.962  0.8061 -0.8434  0.5025
 1364SOL     OW 5532   3.598   7.214   4.295  0.0512  0.3689 -0.0113
 1364SOL    HW1 5533   3.581   7.275   4.366  0.9604 -0.4666  0.9609
 1364SOL    HW2 5534   3.528   7.230   4.231  0.4568  2.6337  0.0433
 1365SOL     OW 5535   7.466   0.963  10.987  0.1190 -0.2468  0.1121
 1365SOL    HW1 5536   7.499   0.986  11.074 -0.8299 -0.0666  0.4293
 1365SOL    HW2 5537   7.493   0.872  10.975  0.0980 -0.3346  0.6770
 1366SOL     OW 5538   7.603   6.253   1.933  0.7631  0.2813  0.1415
 1366SOL    HW1 5539   7.565   6.201   1.861 -0.6609  0.2360  0.8954
 1366SOL    HW2 5540   7.558   6.222   2.011  0.0594  2.4627  0.6624
 1367SOL     OW 5541   0.571   4.940   5.560  0.1075  0.1669  0.3799
 1367SOL    HW1 5542   0.501   4.985   5.512 -0.9759  0.2216  1.9468
 1367SOL    HW2 5543   0.629   4.907   5.491  0.0879  2.5528 -0.8715
 1368SOL     OW 5544   2.234   1.555   6.821  0.0918 -0.4935  0.0520
 1368SOL    HW1 5545   2.297   1.535   6.752 -1.6389  0.1459 -1.8222
 1368SOL    HW2 5546   2.216   1.471   6.863  0.0415 -1.2019 -1.3312
 1369SOL     OW 5547   4.035   2.111   9.037 -0.1727 -0.0562 -0.5680
 1369SOL    HW1 5548   3.995   2.194   9.060  1.6032  1.1377 -1.5788
 1369SOL    HW2 5549   4.076   2.126   8.952  1.0402 -1.6417 -0.3240
 1370SOL     OW 5550   6.062   5.671   4.668  0.2289 -0.4935 -0.4315
 1370SOL    HW1 5551   6.029   5.595   4.620 -0.2268  0.0569 -1.0037
 1370SOL    HW2 5552   6.131   5.707   4.612  0.4408 -0.4747 -0.1628
 1371SOL     OW 5553   1.872   4.614  11.729  0.2677 -0.2608  0.0680
 1371SOL    HW1 5554   1.924   4.534  11.729  1.5320  0.5420 -0.1140
 1371SOL    HW2 5555   1.898   4.661  11.809  1.0618  0.8975 -0.8268
 1372SOL     OW 5556   7.318   1.881  11.357  0.6222 -0.7004  0.3627
 1372SOL    HW1 5557   7.328   1.849  11.446  0.8527 -3.2606 -0.5027
 1372SOL    HW2 5558   7.400   1.859  11.313  0.9472  1.4877 -0.2665
 1373SOL     OW 5559   0.576   0.069  10.066 -0.4234 -0.8940 -0.3123
 1373SOL    HW1 5560   0.598  -0.013  10.021 -1.4685  0.0472 -2.7161
 1373SOL    HW2 5561   0.634   0.134  10.026  0.0721 -0.3469  1.2327
 1374SOL     OW 5562   0.563   0.721   7.983  0.4363 -0.2952  0.5907
 1374SOL    HW1 5563   0.614   0.641   7.970 -0.3673 -0.9549  1.3600
 1374SOL    HW2 5564   0.567   0.737   8.077  0.5307  0.5425  0.4506
 1375SOL     OW 5565   3.701   6.006  11.559 -0.2149 -0.1389  0.2415
 1375SOL    HW1 5566   3.617   6.047  11.537 -1.3816 -2.4643  0.1416
 1375SOL    HW2 5567   3.737   5.980  11.474  0.1389 -0.0490  0.3635
 1376SOL     OW 5568   5.490   2.891   2.143 -0.0750 -0.0280 -0.1979
 1376SOL    HW1 5569   5.555   2.845   2.089  0.5848  0.3986  0.2216
 1376SOL    HW2 5570   5.487   2.979   2.107 -1.0090 -0.2613 -0.7142
 1377SOL     OW 5571   7.083   0.880   6.829 -0.2208 -0.1780  0.5209
 1377SOL    HW1 5572   7.053   0.841   6.911  0.8311  1.5428  1.8063
 1377SOL    HW2 5573   7.160   0.828   6.805  0.1519  0.0020  1.2770
 1378SOL     OW 5574   2.314   5.527   9.208  0.9907 -0.3028 -0.4333
 1378SOL    HW1 5575   2.378   5.500   9.273  0.8530  0.5024  0.0451
 1378SOL    HW2 5576   2.233   5.538   9.257  1.1700  1.5470 -0.4745
 1379SOL     OW 5577   7.780   5.725   1.175  0.0456 -0.0228  0.2989
 1379SOL    HW1 5578   7.786   5.630   1.165 -1.5735 -0.1976  0.7463
 1379SOL    HW2 5579   7.687   5.744   1.175  0.3498  1.6857 -0.5963
 1380SOL     OW 5580   6.393   7.314   4.855 -0.0350  0.2568 -0.1744
 1380SOL    HW1 5581   6.329   7.369   4.901 -0.1521 -0.7695  0.9387
 1380SOL    HW2 5582   6.477   7.339   4.893  0.0297  0.3822 -0.4000
 1381SOL     OW 5583   5.199   4.792   1.784  0.2614  0.0063 -0.0766
 1381SOL    HW1 5584   5.169   4.863   1.728  0.4139  0.5589  0.5377
 1381SOL    HW2 5585   5.148   4.802   1.865 -0.9935 -1.6250 -0.6014
 1382SOL     OW 5586   0.775   6.037   7.666 -0.3578 -0.4314 -0.3069
 1382SOL    HW1 5587   0.722   6.081   7.733  0.2429  0.4270 -0.3737
 1382SOL    HW2 5588   0.711   6.005   7.603 -0.7827  1.4273 -0.8919
 1383SOL     OW 5589   7.473   2.455   6.682 -0.0624  0.5017 -0.1170
 1383SOL    HW1 5590   7.549   2.505   6.711  0.8749 -0.4672 -0.7950
 1383SOL    HW2 5591   7.434   2.508   6.612 -0.8072  1.6121  1.0961
 1384SOL     OW 5592   6.791   4.687   4.926 -0.5513 -0.3446  0.0065
 1384SOL    HW1 5593   6.697   4.673   4.923 -0.7311 -0.8167  3.4281
 1384SOL    HW2 5594   6.830   4.602   4.906 -1.0768 -1.2268  2.3582
 1385SOL     OW 5595   1.840   2.836   1.914 -0.3641 -0.4946 -0.6145
 1385SOL    HW1 5596   1.813   2.855   2.004  0.8457 -2.1094  0.1492
 1385SOL    HW2 5597   1.779   2.769   1.884 -1.5759  0.9560 -1.5104
 1386SOL     OW 5598   2.079   4.885   6.353 -0.4332 -0.0274  0.3558
 1386SOL    HW1 5599   2.042   4.970   6.375 -1.3356 -0.5563  0.9603
 1386SOL    HW2 5600   2.060   4.830   6.429 -2.5695 -1.6032 -1.1742
 1387SOL     OW 5601   5.002   0.613   3.388  0.0191 -0.3196  0.1291
 1387SOL    HW1 5602   5.066   0.685   3.388  1.2361 -1.3326 -1.3106
 1387SOL    HW2 5603   5.034   0.552   3.454 -0.2640 -0.1727  0.4050
 1388SOL     OW 5604   1.095   4.575   5.826 -0.1558 -0.7250 -0.0924
 1388SOL    HW1 5605   1.138   4.594   5.743  2.2166 -0.4739  1.0858
 1388SOL    HW2 5606   1.056   4.489   5.815  1.5318 -1.4145 -0.9768
 1389SOL     OW 5607   7.014   0.554   1.485 -0.1763 -0.3781 -0.0726
 1389SOL    HW1 5608   7.022   0.582   1.393  1.0701 -0.2420  0.0702
 1389SOL    HW2 5609   7.101   0.567   1.522 -1.0050  0.9469  1.5353
 1390SOL     OW 5610   0.013   7.287   7.774  0.1813  0.0085 -0.4676
 1390SOL    HW1 5611  -0.027   7.345   7.839 -0.9022 -1.4775  0.2453
 1390SOL    HW2 5612  -0.061   7.250   7.726  0.8977 -0.0938 -1.5234
 1391SOL     OW 5613   1.733   3.751   2.376 -0.1248 -0.0230 -0.1281
 1391SOL    HW1 5614   1.806   3.780   2.431  1.9555 -1.4632 -1.9119
 1391SOL    HW2 5615   1.667   3.720   2.437  1.2175  0.3249  1.5815
 1392SOL     OW 5616   0.200   7.938   6.995  0.7651  0.3495  0.4428
 1392SOL    HW1 5617   0.263   7.984   6.939  0.9368 -1.3383 -0.8087
 1392SOL    HW2 5618   0.144   7.891   6.934  0.9308 -1.5211  1.6541
 1393SOL     OW 5619   2.596   4.355  11.678 -0.3662 -0.2693  0.3589
 1393SOL    HW1 5620   2.540   4.333  11.753 -0.7965  0.1997  0.1787
 1393SOL    HW2 5621   2.633   4.271  11.650  0.3573 -0.3720  1.5277
 1394SOL     OW 5622   0.906   7.001   1.073  0.4353 -0.0133 -0.0948
 1394SOL    HW1 5623   0.964   7.050   1.016  0.3632 -0.3071 -0.4217
 1394SOL    HW2 5624   0.966   6.951   1.130  0.5611 -2.0316 -1.8777
 1395SOL     OW 5625   1.116   3.033  10.902  0.0361  0.1618 -0.2202
 1395SOL    HW1 5626   1.189   3.026  10.964 -0.1547 -0.5280 -0.0624
 1395SOL    HW2 5627   1.070   2.949  10.910 -1.0240  0.7349 -0.0040
 1396SOL     OW 5628   3.531   1.535   9.813 -0.3759  0.0364  0.2566
 1396SOL    HW1 5629   3.600   1.551   9.877 -1.5139 -2.3850  2.2772
 1396SOL    HW2 5630   3.578   1.502   9.736  0.8732  0.8258  0.6456
 1397SOL     OW 5631   6.627   7.859   6.603  0.0573 -0.1474  0.5603
 1397SOL    HW1 5632   6.659   7.826   6.688 -1.0432 -2.6348  0.0801
 1397SOL    HW2 5633   6.635   7.785   6.544  1.3998  1.7020 -1.7665
 1398SOL     OW 5634   0.449   6.615   9.237  0.3335  0.2169 -0.1525
 1398SOL    HW1 5635   0.463   6.589   9.328  2.1721 -0.8498 -0.6924
 1398SOL    HW2 5636   0.537   6.631   9.203 -0.3623  1.2290 -1.5890
 1399SOL     OW 5637   0.375   1.605   7.934 -0.9813 -0.1220  0.4824
 1399SOL    HW1 5638   0.349   1.695   7.954  0.9841  0.9202 -1.3551
 1399SOL    HW2 5639   0.470   1.604   7.941 -0.8441 -1.6997 -0.8664
 1400SOL     OW 5640   1.258   3.023   5.556  0.3697  0.2240 -0.3050
 1400SOL    HW1 5641   1.302   2.939   5.556  2.3042  1.0781  2.5816
 1400SOL    HW2 5642   1.328   3.088   5.553 -1.0160  1.7639 -1.5761
 1401SOL     OW 5643   0.585   6.930   2.495 -0.0225 -0.2381  0.0161
 1401SOL    HW1 5644   0.658   6.902   2.438 -0.7416  0.5722 -1.3394
 1401SOL    HW2 5645   0.566   6.852   2.548  1.9614 -0.4078  0.5871
 1402SOL     OW 5646   0.170   7.360   2.756  0.3616  0.0676 -0.6503
 1402SOL    HW1 5647   0.162   7.367   2.661 -0.2962 -1.9525 -0.7981
 1402SOL    HW2 5648   0.158   7.266   2.774  0.8907  0.3430  1.3870
 1403SOL     OW 5649   6.861   4.690   0.457  0.9441 -0.0586  0.1461
 1403SOL    HW1 5650   6.884   4.632   0.529  0.4827 -1.8657 -1.0770
 1403SOL    HW2 5651   6.911   4.770   0.472  0.6247 -0.2661  2.5849
 1404SOL     OW 5652   4.657   1.059  10.241  0.2147 -0.0672 -0.6882
 1404SOL    HW1 5653   4.678   0.970  10.269  2.6808  0.0678 -1.9247
 1404SOL    HW2 5654   4.661   1.056  10.146 -1.3011  1.0294 -0.8221
 1405SOL     OW 5655   3.531   0.582  11.522 -0.3788 -0.0573  0.1570
 1405SOL    HW1 5656   3.459   0.536  11.565  0.9397 -2.0377  0.3920
 1405SOL    HW2 5657   3.562   0.522  11.455 -0.3119  1.6698 -1.4424
 1406SOL     OW 5658   6.348   0.465   4.871 -0.3167  0.2755 -0.0882
 1406SOL    HW1 5659   6.270   0.416   4.896 -0.9777  1.1984 -0.2546
 1406SOL    HW2 5660   6.327   0.556   4.893  1.1388  0.4203  0.8611
 1407SOL     OW 5661   2.660   6.799  11.552 -0.4153  0.0805  0.1602
 1407SOL    HW1 5662   2.628   6.878  11.510 -0.6461 -0.3578 -0.5055
 1407SOL    HW2 5663   2.707   6.830  11.630  0.6663  0.9724 -0.8082
 1408SOL     OW 5664   3.765   5.030  12.340  0.0384 -0.4271 -0.3069
 1408SOL    HW1 5665   3.721   5.042  12.256 -1.4273 -0.4178  0.4212
 1408SOL    HW2 5666   3.694   5.011  12.402  1.1094 -0.7814  0.8654
 1409SOL     OW 5667   3.993   4.146   2.364  0.3766  0.0415  0.3054
 1409SOL    HW1 5668   3.991   4.051   2.368  1.0571 -0.0221 -0.4634
 1409SOL    HW2 5669   4.085   4.167   2.347  0.2328  0.8340  0.4658
 1410SOL     OW 5670   5.489   7.683   3.463  0.1569  0.6429  0.3125
 1410SOL    HW1 5671   5.542   7.634   3.526 -0.6642  0.6265  1.0054
 1410SOL    HW2 5672   5.435   7.742   3.516  0.2363  1.4131 -0.4424
 1411SOL     OW 5673   0.258   3.680   9.470 -0.5111  0.1960 -0.4636
 1411SOL    HW1 5674   0.318   3.707   9.401 -0.0273 -1.0336 -0.5531
 1411SOL    HW2 5675   0.171   3.687   9.431 -0.3748  1.1264 -0.6266
 1412SOL     OW 5676   0.062   6.519   2.235  0.2685  0.4067  0.3747
 1412SOL    HW1 5677   0.154   6.531   2.257  0.9460 -1.2093 -1.3064
 1412SOL    HW2 5678   0.063   6.481   2.147 -2.0195  0.5812  0.2074
 1413SOL     OW 5679   5.472   6.208   5.328 -0.2227  0.0021 -0.3740
 1413SOL    HW1 5680   5.552   6.211   5.275  0.2193  0.0976  0.2810
 1413SOL    HW2 5681   5.450   6.115   5.333 -0.5185  0.0239 -1.0748
 1414SOL     OW 5682   1.095   7.155   0.911 -0.3720  0.4644  0.0722
 1414SOL    HW1 5683   1.087   7.243   0.875  0.9499  0.3696 -0.5093
 1414SOL    HW2 5684   1.157   7.110   0.853 -0.6673 -0.6991  0.6250
 1415SOL     OW 5685   7.160   3.509   2.566  0.4466  0.0779  0.6554
 1415SOL    HW1 5686   7.236   3.538   2.515 -0.1400  1.1543  0.3655
 1415SOL    HW2 5687   7.195   3.496   2.654  1.1093 -0.1172  0.3745
 1416SOL     OW 5688   5.317   2.751   9.721  0.0468 -0.1366  0.3568
 1416SOL    HW1 5689   5.395   2.789   9.678  0.9983 -1.1616  1.1157
 1416SOL    HW2 5690   5.248   2.815   9.706  1.0373  0.8043 -0.3583
 1417SOL     OW 5691   2.955   5.846   8.762 -0.2099  0.1190 -0.3498
 1417SOL    HW1 5692   2.932   5.896   8.683  0.2045  1.1137  0.1474
 1417SOL    HW2 5693   3.051   5.846   8.762 -0.1852  1.2240  0.8094
 1418SOL     OW 5694   3.908   2.797   8.164 -0.2010  0.1657 -0.9340
 1418SOL    HW1 5695   3.883   2.837   8.080  1.2480  0.3588 -1.2891
 1418SOL    HW2 5696   4.001   2.778   8.156  0.5516  2.2383  1.4164
 1419SOL     OW 5697   7.751   2.078   7.724 -0.2510 -0.4360  0.2421
 1419SOL    HW1 5698   7.757   2.143   7.654  0.1695  0.2895  0.9370
 1419SOL    HW2 5699   7.728   1.996   7.679  0.4860 -0.0895 -0.7929
 1420SOL     OW 5700   0.571   6.717   2.673  0.4499 -0.2650 -0.1816
 1420SOL    HW1 5701   0.552   6.784   2.738 -0.9791 -1.1258  0.3338
 1420SOL    HW2 5702   0.559   6.634   2.720  0.7361 -0.8963 -1.1959
 1421SOL     OW 5703   1.847   3.092   6.362  0.4501  0.2777  0.2119
 1421SOL    HW1 5704   1.879   3.163   6.418  0.8060  2.4003 -2.4472
 1421SOL    HW2 5705   1.754   3.111   6.350  0.5209  0.2393 -0.4230
 1422SOL     OW 5706   2.486   7.206   5.532 -0.4783  0.4910 -0.1762
 1422SOL    HW1 5707   2.432   7.223   5.455  1.8380  0.0837 -1.9956
 1422SOL    HW2 5708   2.499   7.111   5.533  0.6847  0.6367 -0.1400
 1423SOL     OW 5709   4.012   7.737  11.231 -0.0892 -0.2024  0.3878
 1423SOL    HW1 5710   4.105   7.758  11.219 -0.1053 -0.6180 -0.5168
 1423SOL    HW2 5711   3.990   7.679  11.158 -1.2701  0.5574  0.1026
 1424SOL     OW 5712   0.336   7.643   3.092  0.1256  0.0075 -0.3693
 1424SOL    HW1 5713   0.399   7.583   3.053  0.1422  1.5792 -3.0274
 1424SOL    HW2 5714   0.264   7.646   3.029 -0.6593  1.4279  0.5449
 1425SOL     OW 5715   5.065   6.640   6.340 -0.1451  0.2186  0.0541
 1425SOL    HW1 5716   5.127   6.595   6.283 -1.8521 -1.9475 -0.2014
 1425SOL    HW2 5717   4.979   6.621   6.302 -1.1134  1.6815  1.3784
 1426SOL     OW 5718   5.123   3.490   5.335 -0.4444  0.0112  0.2302
 1426SOL    HW1 5719   5.170   3.431   5.394  0.4480  0.7806  0.3109
 1426SOL    HW2 5720   5.120   3.573   5.382 -2.0712 -0.0573  0.3042
 1427SOL     OW 5721   4.753   1.467  10.988 -0.5588 -0.0961  0.3847
 1427SOL    HW1 5722   4.792   1.388  10.951  0.9294  0.9228 -0.3275
 1427SOL    HW2 5723   4.728   1.441  11.077  0.0094 -1.3376  0.2094
 1428SOL     OW 5724   3.887   3.448   0.426 -0.8234 -0.5529 -0.0003
 1428SOL    HW1 5725   3.962   3.389   0.438  0.8120  1.1547 -1.3130
 1428SOL    HW2 5726   3.835   3.406   0.357 -0.1200 -0.8835 -0.3450
 1429SOL     OW 5727   3.814   2.613   5.729  0.1322  0.0984 -0.3411
 1429SOL    HW1 5728   3.765   2.582   5.805 -0.6159  0.5126 -0.6512
 1429SOL    HW2 5729   3.805   2.544   5.664  0.6807 -0.2065 -0.1041
 1430SOL     OW 5730   7.412   0.383   7.517 -0.2973  0.3979  0.4097
 1430SOL    HW1 5731   7.440   0.401   7.427  0.9148 -0.3281  0.6148
 1430SOL    HW2 5732   7.373   0.296   7.513 -0.5362  0.5015  0.5227
 1431SOL     OW 5733   1.474   7.359   5.768 -0.4930 -0.3022 -0.5182
 1431SOL    HW1 5734   1.400   7.396   5.719  1.9503  3.5766 -1.7181
 1431SOL    HW2 5735   1.490   7.422   5.838  3.4417  0.7992 -2.1539
 1432SOL     OW 5736   7.365   6.335   8.244 -0.2470 -0.4299 -0.3331
 1432SOL    HW1 5737   7.422   6.258   8.245  0.2776 -0.0477  1.0598
 1432SOL    HW2 5738   7.276   6.298   8.242 -0.0000 -1.0719  0.1203
 1433SOL     OW 5739   4.456   4.168   2.879 -0.3513  0.3976 -0.3125
 1433SOL    HW1 5740   4.530   4.215   2.917 -0.3114 -0.3895  0.6300
 1433SOL    HW2 5741   4.392   4.236   2.859  0.4279  1.0360 -0.6894
 1434SOL     OW 5742   0.779   3.028   6.132  0.1252 -0.3856 -0.0960
 1434SOL    HW1 5743   0.769   2.956   6.194 -1.9713  0.0037  0.0975
 1434SOL    HW2 5744   0.777   3.107   6.186 -3.4891  0.0628 -0.6351
 1435SOL     OW 5745   1.534   1.220   7.599 -0.3044 -0.3450  0.7253
 1435SOL    HW1 5746   1.496   1.133   7.613 -0.1339 -0.7646 -1.1553
 1435SOL    HW2 5747   1.572   1.216   7.511  1.8604  0.8686  1.5084
 1436SOL     OW 5748   5.562   7.357  10.472  0.5597  0.1744 -0.1323
 1436SOL    HW1 5749   5.632   7.385  10.531  0.9305  1.0527 -0.9690
 1436SOL    HW2 5750   5.606   7.304  10.406  0.3218  0.1444 -0.2677
 1437SOL     OW 5751   5.272   5.093   4.720 -1.2050  0.0263  0.4774
 1437SOL    HW1 5752   5.308   5.136   4.642 -2.1693 -0.9653 -0.5504
 1437SOL    HW2 5753   5.251   5.165   4.779 -1.2802  0.8614 -0.5357
 1438SOL     OW 5754   6.157   2.628   2.379 -0.1743  0.3820 -0.2242
 1438SOL    HW1 5755   6.142   2.553   2.436 -1.0880 -1.1630 -2.3896
 1438SOL    HW2 5756   6.240   2.611   2.337 -1.3086 -0.5207 -2.2381
 1439SOL     OW 5757   0.319   5.736   9.702 -0.0509 -0.0054 -0.0323
 1439SOL    HW1 5758   0.244   5.683   9.732  0.2249 -0.1822  0.3552
 1439SOL    HW2 5759   0.310   5.738   9.607 -1.1021  0.7884  0.0558
 1440SOL     OW 5760   1.091   1.529  11.941 -0.3679  0.0672  0.1674
 1440SOL    HW1 5761   1.153   1.489  12.002  0.5318  1.1349 -0.0149
 1440SOL    HW2 5762   1.007   1.526  11.987 -0.2900 -1.7060  0.2856
 1441SOL     OW 5763   1.879   1.069  10.569  0.2201 -0.1310  0.2804
 1441SOL    HW1 5764   1.858   0.986  10.612  1.6255 -0.7527 -0.1857
 1441SOL    HW2 5765   1.826   1.069  10.489  0.4227 -0.7228  0.1421
 1442SOL     OW 5766   5.792   7.757   5.321 -0.5952 -0.7880 -0.3314
 1442SOL    HW1 5767   5.848   7.748   5.243  0.6105 -0.1990  0.4379
 1442SOL    HW2 5768   5.832   7.828   5.371 -0.8139 -1.7342  1.2609
 1443SOL     OW 5769   0.057   0.536   3.518 -0.0607  0.5944 -0.3886
 1443SOL    HW1 5770   0.044   0.458   3.463  2.2075 -0.3718  0.3197
 1443SOL    HW2 5771   0.079   0.501   3.604  1.7308  1.9677 -0.2266
 1444SOL     OW 5772   4.481   2.468   3.877 -0.5042 -0.5053 -0.1468
 1444SOL    HW1 5773   4.437   2.506   3.801  0.2516 -1.7048 -1.2326
 1444SOL    HW2 5774   4.550   2.530   3.898 -2.0815  0.9569  1.0223
 1445SOL     OW 5775   2.641   2.680  10.789  0.0914 -0.2578  0.2202
 1445SOL    HW1 5776   2.717   2.694  10.846  1.1220  0.0372 -1.1454
 1445SOL    HW2 5777   2.634   2.585  10.782  0.4139 -0.2884  0.2710
 1446SOL     OW 5778   4.724   6.215   5.504  0.5019  0.1834 -0.1160
 1446SOL    HW1 5779   4.739   6.290   5.446  1.2573  0.7806  0.8283
 1446SOL    HW2 5780   4.650   6.169   5.464  1.1319  0.4425 -1.6743
 1447SOL     OW 5781   2.024   2.904   6.516  0.5549 -0.1460 -0.3125
 1447SOL    HW1 5782   1.978   2.979   6.479  0.0344 -0.7966 -1.0325
 1447SOL    HW2 5783   2.113   2.935   6.532 -0.3875  1.5355  2.3262
 1448SOL     OW 5784   1.094   6.574   1.317 -0.6893 -0.8632 -0.3493
 1448SOL    HW1 5785   1.062   6.506   1.377 -0.9632 -2.2642 -1.9820
 1448SOL    HW2 5786   1.145   6.526   1.252  2.8257  1.0377  0.7842
 1449SOL     OW 5787   4.839   6.621   5.020  0.4790 -0.1400  0.3761
 1449SOL    HW1 5788   4.781   6.636   4.946 -2.5276  0.6703  2.6649
 1449SOL    HW2 5789   4.860   6.527   5.016  1.8082  0.2032 -2.3231
 1450SOL     OW 5790   2.705   6.545   3.504 -0.5254  0.2493  0.2532
 1450SOL    HW1 5791   2.777   6.592   3.547  1.9834 -2.2946 -0.8194
 1450SOL    HW2 5792   2.633   6.549   3.567  1.3300  0.9002  2.4958
 1451SOL     OW 5793   5.476   1.791   6.297 -0.1315 -0.6592 -0.1152
 1451SOL    HW1 5794   5.503   1.828   6.213 -2.7461  0.1660 -0.6975
 1451SOL    HW2 5795   5.493   1.860   6.361 -0.6080 -0.2246 -0.4410
 1452SOL     OW 5796   3.514   4.719   5.114 -0.3509  0.1989  0.5397
 1452SOL    HW1 5797   3.498   4.803   5.156 -1.4261  0.1655  0.2055
 1452SOL    HW2 5798   3.433   4.670   5.126 -0.5616  0.0548 -1.2797
 1453SOL     OW 5799   5.250   6.014   3.243 -0.3085  0.3673 -0.4613
 1453SOL    HW1 5800   5.297   6.057   3.172  0.6326  1.3132  0.6888
 1453SOL    HW2 5801   5.172   6.067   3.257  0.0912  0.8591 -0.0454
 1454SOL     OW 5802   0.849   1.184   0.096  0.4841  0.2424  0.4036
 1454SOL    HW1 5803   0.812   1.261   0.054  3.1949  1.4265 -0.0445
 1454SOL    HW2 5804   0.828   1.112   0.037 -1.7091  0.6487  0.5976
 1455SOL     OW 5805   6.592   2.337   8.167  0.0400  0.5229 -0.2116
 1455SOL    HW1 5806   6.509   2.340   8.215 -0.3255  0.6841 -0.8500
 1455SOL    HW2 5807   6.569   2.304   8.080  0.7176  0.1046 -0.2393
 1456SOL     OW 5808   6.646   3.277  12.022 -0.2551 -0.2424 -0.0363
 1456SOL    HW1 5809   6.585   3.243  12.087  0.4120 -1.6219 -0.1058
 1456SOL    HW2 5810   6.727   3.292  12.071 -0.4370  0.9814 -0.0751
 1457SOL     OW 5811   6.127   6.028   9.109  0.1630 -0.6290 -0.5599
 1457SOL    HW1 5812   6.163   6.103   9.157  1.6850 -1.0443 -1.0036
 1457SOL    HW2 5813   6.035   6.026   9.134  0.5564  0.1408  1.0755
 1458SOL     OW 5814   2.321   3.585   9.827 -0.4209 -0.1952  0.6921
 1458SOL    HW1 5815   2.343   3.648   9.896 -2.7004  0.1527  1.1608
 1458SOL    HW2 5816   2.240   3.544   9.857 -0.1876 -1.7372 -0.6937
 1459SOL     OW 5817   6.934   2.971   7.034 -0.1749 -0.0842  0.4274
 1459SOL    HW1 5818   6.991   2.934   7.102  1.3317  0.9119 -0.2365
 1459SOL    HW2 5819   6.926   3.064   7.058 -1.2359 -0.1332  0.2978
 1460SOL     OW 5820   0.504   4.054   4.664  0.1630  0.2825  0.2226
 1460SOL    HW1 5821   0.562   4.024   4.593  0.0924  0.8166 -0.0701
 1460SOL    HW2 5822   0.416   4.036   4.632 -0.0268  2.9822 -1.0624
 1461SOL     OW 5823   2.742   2.854   4.764 -0.3178 -0.1208  0.1245
 1461SOL    HW1 5824   2.723   2.908   4.688  0.2315  0.4908  0.4021
 1461SOL    HW2 5825   2.836   2.837   4.759 -0.0287  0.9513  1.2888
 1462SOL     OW 5826   1.554   2.410   1.689 -0.6537  0.2817 -0.3876
 1462SOL    HW1 5827   1.641   2.374   1.709 -0.3996  0.9352 -0.3019
 1462SOL    HW2 5828   1.572   2.499   1.660 -1.2778  0.3208 -0.6555
 1463SOL     OW 5829   4.818   1.369   6.828  0.0779 -0.3890 -0.2746
 1463SOL    HW1 5830   4.896   1.376   6.882 -1.3929 -0.5703  2.0066
 1463SOL    HW2 5831   4.745   1.380   6.889 -1.7158  2.2300 -2.6148
 1464SOL     OW 5832   3.889   3.117   9.862 -0.1903  0.1241  0.0110
 1464SOL    HW1 5833   3.951   3.157   9.924 -0.9978  0.4711  0.6110
 1464SOL    HW2 5834   3.808   3.166   9.875 -0.7118 -0.6036 -0.4718
 1465SOL     OW 5835   1.597   7.450   3.066  0.4279 -0.3343 -0.0232
 1465SOL    HW1 5836   1.528   7.460   3.000  0.2227  0.2046  0.2602
 1465SOL    HW2 5837   1.566   7.501   3.141  0.1559 -1.8027  0.9034
 1466SOL     OW 5838   6.627   0.133   6.437 -0.4645 -0.4633  0.0795
 1466SOL    HW1 5839   6.634   0.073   6.512  0.2989 -0.7608 -0.2228
 1466SOL    HW2 5840   6.579   0.084   6.371 -1.4196 -0.0885  0.4696
 1467SOL     OW 5841   1.788   2.316   3.405 -0.1048 -0.2728 -0.3383
 1467SOL    HW1 5842   1.780   2.330   3.499 -0.6052  1.7804 -0.6302
 1467SOL    HW2 5843   1.699   2.327   3.372 -0.3727 -3.2569 -0.8619
 1468SOL     OW 5844   7.895   4.627   4.385 -0.1659 -0.5176  0.3992
 1468SOL    HW1 5845   7.964   4.619   4.451  0.4598 -0.1015 -0.1917
 1468SOL    HW2 5846   7.846   4.705   4.411  0.7591  0.3078 -0.2120
 1469SOL     OW 5847   5.331   5.272   4.522  0.4449  0.1967 -0.3346
 1469SOL    HW1 5848   5.351   5.301   4.433  0.5552  0.8446 -0.1055
 1469SOL    HW2 5849   5.373   5.337   4.578 -2.7452  2.0259  0.1802
 1470SOL     OW 5850   3.181   6.431   6.212  0.1032  0.2214  0.0356
 1470SOL    HW1 5851   3.155   6.420   6.121  1.1299 -0.6512 -0.1687
 1470SOL    HW2 5852   3.218   6.347   6.237 -0.3609  0.3791  1.3363
 1471SOL     OW 5853   4.295   1.203   4.637 -0.4577  0.1534 -0.1627
 1471SOL    HW1 5854   4.240   1.247   4.702  1.3577  1.2424  0.7150
 1471SOL    HW2 5855   4.358   1.270   4.610  0.1380 -0.8987 -1.5078
 1472SOL     OW 5856   5.494   1.966   7.283  0.3118  0.3572 -0.5924
 1472SOL    HW1 5857   5.569   2.024   7.279  0.3451  0.4657  1.0382
 1472SOL    HW2 5858   5.510   1.911   7.360 -0.9204 -0.0996 -0.6408
 1473SOL     OW 5859   5.207   6.802   7.543  0.0923 -0.1729 -0.0129
 1473SOL    HW1 5860   5.251   6.830   7.463 -0.6787  0.3311 -0.2818
 1473SOL    HW2 5861   5.115   6.792   7.517 -0.5172  1.7125  1.1607
 1474SOL     OW 5862   1.119   4.748   6.048  0.0364  0.3711  0.2950
 1474SOL    HW1 5863   1.119   4.689   5.973  2.1111 -0.0895  0.6055
 1474SOL    HW2 5864   1.137   4.834   6.011 -1.2778  0.5654  0.0415
 1475SOL     OW 5865   1.074   0.524   1.627 -0.5454 -0.1251  0.0597
 1475SOL    HW1 5866   1.028   0.499   1.547  1.6609 -1.1557 -1.0043
 1475SOL    HW2 5867   1.081   0.619   1.622 -1.1971 -0.0980 -0.5315
 1476SOL     OW 5868   3.515   1.058   3.487 -0.3571  0.0289  0.3268
 1476SOL    HW1 5869   3.579   1.018   3.429 -0.2943  0.6185 -0.0089
 1476SOL    HW2 5870   3.505   0.995   3.559  0.7333  0.0257  0.4805
 1477SOL     OW 5871   3.655   4.059   6.543  0.1599 -0.1322 -0.2225
 1477SOL    HW1 5872   3.571   4.079   6.584 -0.1337 -1.9412  0.1798
 1477SOL    HW2 5873   3.720   4.070   6.614  0.3420  1.6227 -0.6290
 1478SOL     OW 5874   2.300   3.621   2.336 -0.1655  0.1380  0.1383
 1478SOL    HW1 5875   2.242   3.674   2.390  0.0427  1.9164 -1.2890
 1478SOL    HW2 5876   2.244   3.587   2.267  0.1045  0.2833 -0.1574
 1479SOL     OW 5877   4.952   4.734   4.383  0.4823  0.6725 -0.4710
 1479SOL    HW1 5878   4.933   4.640   4.384 -0.1919  0.7326  2.4678
 1479SOL    HW2 5879   5.025   4.744   4.445  2.1264  1.8812 -2.4882
 1480SOL     OW 5880   6.721   4.673  10.989 -0.6670 -1.1870 -0.1672
 1480SOL    HW1 5881   6.770   4.716  11.059 -1.1511 -1.5000  0.3753
 1480SOL    HW2 5882   6.656   4.737  10.961  0.7896 -0.3205 -1.7173
 1481SOL     OW 5883   4.886   3.797   9.733 -0.5046 -0.3467 -0.0824
 1481SOL    HW1 5884   4.954   3.861   9.714  0.7411 -1.2256  1.1509
 1481SOL    HW2 5885   4.824   3.843   9.789 -0.4995  0.2371 -0.5540
 1482SOL     OW 5886   5.874   0.879  11.478 -0.3642 -0.4214  0.1837
 1482SOL    HW1 5887   5.833   0.864  11.563 -1.5586  1.3028 -0.0368
 1482SOL    HW2 5888   5.968   0.880  11.497 -0.5740 -0.8882  1.3256
 1483SOL     OW 5889   0.228   2.674  12.413 -0.4099 -0.5124 -0.2837
 1483SOL    HW1 5890   0.212   2.738  12.344 -1.9153 -0.9293 -0.3535
 1483SOL    HW2 5891   0.290   2.717  12.472 -1.8877  1.3089  0.0413
 1484SOL     OW 5892   2.436   2.518   7.791  0.2172  0.4376 -0.2738
 1484SOL    HW1 5893   2.519   2.538   7.748 -0.0103  2.4648  0.1144
 1484SOL    HW2 5894   2.461   2.484   7.877  0.6509  0.6832 -0.2977
 1485SOL     OW 5895   0.321   7.698  10.249 -0.2917 -0.1595 -0.1905
 1485SOL    HW1 5896   0.391   7.649  10.292 -1.8829 -1.1108  1.4067
 1485SOL    HW2 5897   0.339   7.790  10.271  0.0397 -0.4630  0.8112
 1486SOL     OW 5898   0.272   0.707   9.049  0.2049  0.7502 -0.1320
 1486SOL    HW1 5899   0.364   0.691   9.069  0.2453  0.9598 -0.1426
 1486SOL    HW2 5900   0.261   0.801   9.064 -0.2524  0.5477  0.8412
 1487SOL     OW 5901   7.356   6.565   8.781 -0.7638 -0.3433  0.0824
 1487SOL    HW1 5902   7.397   6.504   8.720 -2.3471 -1.0911 -0.2810
 1487SOL    HW2 5903   7.375   6.527   8.868  0.8436  0.3231  0.0638
 1488SOL     OW 5904   0.779   7.683   8.629  0.3170  0.0580 -0.2230
 1488SOL    HW1 5905   0.740   7.719   8.709  0.8535 -0.0323  0.0840
 1488SOL    HW2 5906   0.871   7.710   8.633  0.4979 -0.5088 -0.4793
 1489SOL     OW 5907   3.755   6.035   6.508  0.0028 -0.3506  0.2594
 1489SOL    HW1 5908   3.787   6.092   6.438  0.1624 -1.5024 -0.6238
 1489SOL    HW2 5909   3.670   6.071   6.531 -0.0284  0.0755 -0.4953
 1490SOL     OW 5910   6.245   1.658   0.877  0.1294  0.3398  0.4833
 1490SOL    HW1 5911   6.239   1.731   0.815  0.2412  0.5719  0.7378
 1490SOL    HW2 5912   6.155   1.634   0.896  0.1026 -0.2130 -0.3196
 1491SOL     OW 5913   4.520   6.047   2.548  0.2138  0.3389 -0.2589
 1491SOL    HW1 5914   4.477   6.053   2.633  0.2597  0.6907 -0.2613
 1491SOL    HW2 5915   4.594   6.108   2.554 -0.3449  1.0986 -0.8896
 1492SOL     OW 5916   2.212   3.833  10.163  0.0642  0.3246  0.1011
 1492SOL    HW1 5917   2.286   3.852  10.220  0.0175  1.4001 -0.1882
 1492SOL    HW2 5918   2.239   3.865  10.077 -0.7277  0.7083 -0.0086
 1493SOL     OW 5919   0.257   5.253  10.286  0.3699  0.3402  0.3889
 1493SOL    HW1 5920   0.319   5.309  10.332  1.2806  0.4224 -0.8822
 1493SOL    HW2 5921   0.184   5.243  10.347  0.9695  1.4581  1.3317
 1494SOL     OW 5922   5.031   6.012   9.540 -0.1304 -0.2539 -0.0807
 1494SOL    HW1 5923   4.998   6.096   9.510 -1.5319  0.1571  2.3409
 1494SOL    HW2 5924   5.094   5.985   9.474  0.3479  2.6836 -0.9270
 1495SOL     OW 5925   0.126   1.849   2.897  0.5120 -0.0236 -0.0553
 1495SOL    HW1 5926   0.101   1.889   2.981  1.7485  0.4323  0.1157
 1495SOL    HW2 5927   0.128   1.755   2.915 -2.3280 -0.2511 -0.4302
 1496SOL     OW 5928   6.034   2.925  11.844 -0.2313 -0.1451 -0.2459
 1496SOL    HW1 5929   6.106   2.979  11.876  0.5882 -1.1983 -0.2555
 1496SOL    HW2 5930   6.076   2.847  11.807 -1.3657 -0.7328 -0.3657
 1497SOL     OW 5931   0.249   5.999   4.280  0.3328  0.0414 -0.4344
 1497SOL    HW1 5932   0.317   6.006   4.347  1.7483 -2.2852 -1.5217
 1497SOL    HW2 5933   0.180   5.947   4.322  1.1174 -1.2211 -0.6602
 1498SOL     OW 5934   3.850   7.601  11.019  0.5919 -0.2054  0.2425
 1498SOL    HW1 5935   3.762   7.639  11.020  1.3885  1.7962  1.5300
 1498SOL    HW2 5936   3.840   7.517  11.064 -0.7696 -0.3117 -0.2152
 1499SOL     OW 5937   2.794   7.751   0.627 -0.3273 -0.1457 -0.2154
 1499SOL    HW1 5938   2.774   7.657   0.633  0.3262 -0.4698 -2.3140
 1499SOL    HW2 5939   2.711   7.794   0.646 -0.3225 -1.0569  2.1787
 1500SOL     OW 5940   6.668   6.750   5.351  0.0339 -0.4851 -0.4389
 1500SOL    HW1 5941   6.579   6.776   5.326  0.0101 -1.1475 -1.0681
 1500SOL    HW2 5942   6.725   6.793   5.287  0.1591 -0.2083 -0.1465
 1501SOL     OW 5943   0.591   6.636  11.805  0.1231  0.1293  0.2942
 1501SOL    HW1 5944   0.585   6.716  11.752 -0.8195 -1.3423 -1.9312
 1501SOL    HW2 5945   0.560   6.663  11.891 -2.8721  1.6126 -1.1119
 1502SOL     OW 5946   7.814   6.120   5.871 -0.1653  0.2374  0.2455
 1502SOL    HW1 5947   7.833   6.210   5.843  1.0662 -0.2963 -0.7028
 1502SOL    HW2 5948   7.788   6.129   5.963 -0.7516  1.6338 -0.0269
 1503SOL     OW 5949   0.628   2.313   5.364 -0.5894  0.0702 -0.1666
 1503SOL    HW1 5950   0.642   2.401   5.330 -0.9121 -0.0332 -0.5712
 1503SOL    HW2 5951   0.645   2.321   5.458 -0.8633  0.6197 -0.1586
 1504SOL     OW 5952   7.467   1.653   1.666  0.0143  0.1394 -0.0468
 1504SOL    HW1 5953   7.407   1.722   1.638  0.8370  1.0647  0.4121
 1504SOL    HW2 5954   7.410   1.585   1.703 -0.7801  0.8111 -0.0221
 1505SOL     OW 5955   5.502   3.832   7.673  0.4191  0.5023 -0.7475
 1505SOL    HW1 5956   5.471   3.851   7.585  0.0189 -0.0183 -0.7215
 1505SOL    HW2 5957   5.592   3.799   7.660  0.1467 -0.1571 -1.0187
 1506SOL     OW 5958   7.694   3.488   5.054 -0.0114 -0.2881  0.0008
 1506SOL    HW1 5959   7.607   3.447   5.061 -1.0238  1.6499 -0.4436
 1506SOL    HW2 5960   7.682   3.575   5.091  1.0996  0.9137 -2.2842
 1507SOL     OW 5961   7.896   2.645   8.822  0.1631 -0.0886 -0.6177
 1507SOL    HW1 5962   7.813   2.690   8.803  0.1594  0.2331  0.1358
 1507SOL    HW2 5963   7.870   2.556   8.843  0.1077 -0.2726 -1.4228
 1508SOL     OW 5964   4.963   5.322   2.250 -0.3116 -0.0484  0.1285
 1508SOL    HW1 5965   4.969   5.256   2.320 -1.4652 -1.4552 -1.0222
 1508SOL    HW2 5966   4.986   5.274   2.171 -1.6751  0.7898 -0.8199
 1509SOL     OW 5967   3.281   7.453   1.181 -0.0932 -0.3849  0.8730
 1509SOL    HW1 5968   3.257   7.483   1.269  0.8905 -0.3058  1.1184
 1509SOL    HW2 5969   3.363   7.406   1.193 -0.5602 -1.4321  0.1763
 1510SOL     OW 5970   5.881   0.913   3.262  0.5323  0.1241 -0.2522
 1510SOL    HW1 5971   5.951   0.929   3.198  2.4511 -1.3346  1.3572
 1510SOL    HW2 5972   5.802   0.946   3.219  2.0848  1.3344 -2.3984
 1511SOL     OW 5973   0.420   6.640   5.261  0.0485 -0.6574  0.5094
 1511SOL    HW1 5974   0.474   6.590   5.322 -0.7874  0.0677  1.9098
 1511SOL    HW2 5975   0.330   6.618   5.285 -0.3294  1.0832  0.8264
 1512SOL     OW 5976   1.644   3.638   6.431 -0.4779 -0.0205 -0.0907
 1512SOL    HW1 5977   1.628   3.575   6.360 -1.7684  1.1445 -0.8762
 1512SOL    HW2 5978   1.639   3.724   6.389 -0.7275  0.6770  1.3117
 1513SOL     OW 5979   4.840   2.035   1.005 -0.2348  0.2615  0.8478
 1513SOL    HW1 5980   4.887   2.001   0.930 -3.1836  0.1866 -1.1126
 1513SOL    HW2 5981   4.836   1.962   1.067  0.8739 -0.1725  0.4203
 1514SOL     OW 5982   6.735   7.784   4.109  0.0053  0.2192  0.4628
 1514SOL    HW1 5983   6.756   7.698   4.074 -0.0985  0.3962 -0.0452
 1514SOL    HW2 5984   6.676   7.767   4.183 -0.6553 -0.1084 -0.1296
 1515SOL     OW 5985   7.656   1.667   8.021  0.3626 -0.3630  0.1145
 1515SOL    HW1 5986   7.614   1.582   8.032 -1.1847  0.2421 -0.7540
 1515SOL    HW2 5987   7.632   1.716   8.100  1.3944 -0.7603  0.6945
 1516SOL     OW 5988   7.602   5.561   5.471  0.4048 -0.1267  0.0455
 1516SOL    HW1 5989   7.531   5.501   5.449 -0.0098  0.1128  0.7021
 1516SOL    HW2 5990   7.663   5.509   5.524  1.6836 -0.8605 -2.0419
 1517SOL     OW 5991   3.485   6.413   5.185  0.4756 -0.3899  0.1827
 1517SOL    HW1 5992   3.511   6.501   5.159 -1.6140  0.0652 -0.5227
 1517SOL    HW2 5993   3.514   6.357   5.113  0.5420 -0.0820 -0.0301
 1518SOL     OW 5994   4.027   4.978  10.959 -0.6119 -0.3120  0.5707
 1518SOL    HW1 5995   4.088   4.905  10.964 -2.3682 -1.8638  0.6854
 1518SOL    HW2 5996   4.082   5.056  10.964  1.3476 -1.6052  0.3960
 1519SOL     OW 5997   0.801   4.498  10.966  0.0033 -0.5159 -0.2823
 1519SOL    HW1 5998   0.790   4.570  11.028 -0.8001 -1.1603  0.3579
 1519SOL    HW2 5999   0.893   4.501  10.943 -0.0849  0.9338 -0.5534
 1520SOL     OW 6000   1.201   7.168   6.187  0.3210  0.7996 -0.6270
 1520SOL    HW1 6001   1.168   7.229   6.121  1.8585  0.5585 -1.6797
 1520SOL    HW2 6002   1.267   7.219   6.235 -2.2496  1.7076  2.3245
 1521SOL     OW 6003   2.702   2.990   5.241 -0.0993  0.6484 -0.2583
 1521SOL    HW1 6004   2.712   3.024   5.153 -0.1419  1.9037  0.2109
 1521SOL    HW2 6005   2.790   2.963   5.268  0.0451  1.0073 -0.3803
 1522SOL     OW 6006   1.133   6.280   0.128 -0.5400 -0.1825  0.5657
 1522SOL    HW1 6007   1.173   6.194   0.116  0.3889  0.2609  0.3846
 1522SOL    HW2 6008   1.063   6.266   0.190 -0.7518 -1.1767  0.1179
 1523SOL     OW 6009   3.732   4.304  11.069 -0.5353  0.3682 -0.1180
 1523SOL    HW1 6010   3.780   4.315  10.987 -0.0264  1.3553  0.3103
 1523SOL    HW2 6011   3.647   4.269  11.041  1.1094 -3.8194 -0.7451
 1524SOL     OW 6012   5.745   0.687   8.201 -0.0413  0.0536  0.4971
 1524SOL    HW1 6013   5.743   0.695   8.297 -1.0336  2.3986  0.3598
 1524SOL    HW2 6014   5.701   0.767   8.170 -0.0319 -0.8098 -1.9176
 1525SOL     OW 6015   3.150   4.328   7.981 -0.3305  0.2726 -0.1956
 1525SOL    HW1 6016   3.070   4.323   8.032 -0.9209  0.9989 -1.0268
 1525SOL    HW2 6017   3.220   4.316   8.045 -1.0941 -0.1892  0.5637
 1526SOL     OW 6018   7.940   0.705   4.329 -0.4021 -0.2216 -0.8319
 1526SOL    HW1 6019   7.937   0.629   4.387 -1.8820  0.4965  0.0707
 1526SOL    HW2 6020   7.944   0.780   4.388 -0.4744  0.4608 -1.6828
 1527SOL     OW 6021   4.812   6.797   7.788  0.4027  0.2104  0.3265
 1527SOL    HW1 6022   4.721   6.798   7.816  0.3167  1.7101  0.0909
 1527SOL    HW2 6023   4.843   6.887   7.801  1.3810  0.1180 -1.0337
 1528SOL     OW 6024   4.684   3.961   3.553 -0.3001  0.2544 -1.0351
 1528SOL    HW1 6025   4.600   3.915   3.549  0.0432 -0.5996  0.6661
 1528SOL    HW2 6026   4.662   4.048   3.586 -0.4928 -0.1260 -0.1122
 1529SOL     OW 6027   4.107   0.706  12.052 -0.7683 -0.2465 -0.0903
 1529SOL    HW1 6028   4.074   0.643  12.116  2.0316  0.5803  2.4491
 1529SOL    HW2 6029   4.126   0.654  11.975 -1.8680 -1.8148  0.6358
 1530SOL     OW 6030   2.998   6.861   8.318 -0.2165 -0.5993 -0.0615
 1530SOL    HW1 6031   2.992   6.955   8.303  1.7273 -0.8252 -3.2535
 1530SOL    HW2 6032   2.909   6.829   8.304 -0.8384  0.7073  0.7377
 1531SOL     OW 6033   3.956   7.075  10.278 -0.0764 -0.1843  0.2687
 1531SOL    HW1 6034   3.933   7.140  10.212  1.6864  0.5225  0.3151
 1531SOL    HW2 6035   3.947   7.121  10.362  1.9302  0.3082  0.2657
 1532SOL     OW 6036   4.618   7.455   8.949 -0.3492 -0.1589 -0.1362
 1532SOL    HW1 6037   4.692   7.482   9.003 -1.4526 -0.5639  1.6521
 1532SOL    HW2 6038   4.651   7.380   8.899  0.4396 -0.3786  0.6829
 1533SOL     OW 6039   6.582   7.805   7.995 -0.0793 -0.0551  0.0647
 1533SOL    HW1 6040   6.604   7.788   8.086  0.9008  1.0842  0.0561
 1533SOL    HW2 6041   6.487   7.795   7.991 -0.0092 -1.2318  0.9486
 1534SOL     OW 6042   1.008   5.185   1.880 -0.3313  0.2375  0.0433
 1534SOL    HW1 6043   0.942   5.239   1.924 -1.3142 -0.0685 -0.9922
 1534SOL    HW2 6044   1.003   5.212   1.788 -1.1790 -1.8793 -0.5888
 1535SOL     OW 6045   3.777   5.421   5.342  0.6135  0.0725 -0.2046
 1535SOL    HW1 6046   3.823   5.478   5.403  1.7623 -0.7418 -0.2911
 1535SOL    HW2 6047   3.841   5.355   5.317 -0.5516 -1.0175 -0.4329
 1536SOL     OW 6048   1.713   7.065  11.353 -0.5233 -0.5455  0.0850
 1536SOL    HW1 6049   1.788   7.035  11.301  0.2582 -0.5603  1.2063
 1536SOL    HW2 6050   1.724   7.160  11.357  0.0569 -0.6392  1.1509
 1537SOL     OW 6051   1.813   2.857   9.569  0.2408 -0.8092 -0.1598
 1537SOL    HW1 6052   1.789   2.929   9.628  2.6794 -0.8017  0.9328
 1537SOL    HW2 6053   1.729   2.823   9.537 -0.9974  2.6544 -0.9530
 1538SOL     OW 6054   5.900   1.133   3.914  0.2996  0.1526  0.8848
 1538SOL    HW1 6055   5.862   1.220   3.918  1.7137  0.9092 -0.6951
 1538SOL    HW2 6056   5.986   1.142   3.956  0.2923 -0.5780  1.0758
 1539SOL     OW 6057   7.240   1.658  12.234 -0.3380 -0.4382 -0.6003
 1539SOL    HW1 6058   7.296   1.637  12.308  0.1478 -3.1985 -1.5985
 1539SOL    HW2 6059   7.154   1.622  12.257 -1.2266  1.9537  0.0726
 1540SOL     OW 6060   1.983   7.511   2.826  0.2028  0.1045  0.6932
 1540SOL    HW1 6061   2.045   7.537   2.894  2.2008  0.4472 -1.1271
 1540SOL    HW2 6062   1.927   7.446   2.867  0.2286  1.4984  3.1037
 1541SOL     OW 6063   7.236   1.443   1.163  0.0064  0.2273  0.4938
 1541SOL    HW1 6064   7.298   1.395   1.218 -0.5684 -0.2530  0.7292
 1541SOL    HW2 6065   7.267   1.428   1.073 -0.5578 -1.1861  0.5079
 1542SOL     OW 6066   2.529   7.721   0.175  0.0612  0.0875 -0.0444
 1542SOL    HW1 6067   2.498   7.698   0.087  0.3569 -0.2206 -0.0754
 1542SOL    HW2 6068   2.587   7.648   0.198 -2.0114 -1.1845  1.4748
 1543SOL     OW 6069   0.742   6.930  11.972 -0.3815  0.0440 -0.1989
 1543SOL    HW1 6070   0.738   7.021  11.943 -0.1256 -0.2125 -1.0625
 1543SOL    HW2 6071   0.673   6.923  12.037 -1.3831  0.4911 -1.1812
 1544SOL     OW 6072   3.038   6.152   3.028  0.2909  0.2443 -0.2328
 1544SOL    HW1 6073   3.066   6.244   3.031  1.8038 -0.1344 -1.3287
 1544SOL    HW2 6074   2.946   6.154   3.052  1.2167  1.5609  4.0807
 1545SOL     OW 6075   1.640   4.845  10.274  0.4972  0.0356 -0.1027
 1545SOL    HW1 6076   1.666   4.878  10.188  1.5930 -0.5123 -0.0084
 1545SOL    HW2 6077   1.723   4.838  10.322  0.1208 -1.3968  0.3699
 1546SOL     OW 6078   2.377   0.891  11.906  0.0086  0.0507 -0.1354
 1546SOL    HW1 6079   2.452   0.864  11.960 -1.1041  1.7015  2.4784
 1546SOL    HW2 6080   2.407   0.971  11.863  0.3680 -0.3753 -0.6917
 1547SOL     OW 6081   0.477   4.119   0.356  0.0476  0.4304  0.1445
 1547SOL    HW1 6082   0.394   4.074   0.367 -0.4100  1.1842 -0.1456
 1547SOL    HW2 6083   0.499   4.149   0.444  0.1334  0.0327  0.2612
 1548SOL     OW 6084   2.535   2.624  10.544 -0.4325  0.0730  0.0068
 1548SOL    HW1 6085   2.560   2.667  10.626  0.0211  1.1850 -0.6943
 1548SOL    HW2 6086   2.603   2.650  10.482 -2.0303  1.2189 -1.3419
 1549SOL     OW 6087   6.290   3.757   1.150  0.1891  0.3651  0.1377
 1549SOL    HW1 6088   6.230   3.826   1.121  0.7299  1.0053  0.5316
 1549SOL    HW2 6089   6.360   3.803   1.195 -0.0746 -0.5379  1.5243
 1550SOL     OW 6090   5.920   4.414  10.109  0.1290 -0.2474  0.5192
 1550SOL    HW1 6091   5.915   4.467  10.188 -0.3967 -0.5633  0.7068
 1550SOL    HW2 6092   5.829   4.401  10.083  0.3177  0.2852 -0.4364
 1551SOL     OW 6093   2.436   4.385   5.326  0.1564  0.2279 -0.4805
 1551SOL    HW1 6094   2.431   4.366   5.233  1.9432 -0.2137 -0.5235
 1551SOL    HW2 6095   2.418   4.301   5.369 -0.0488  0.2884 -0.4496
 1552SOL     OW 6096   0.285   3.095  10.272  0.5139  0.1107 -0.7447
 1552SOL    HW1 6097   0.305   3.019  10.327 -0.3284  0.6830  0.4029
 1552SOL    HW2 6098   0.208   3.069  10.222 -1.1171  0.8685  1.2052
 1553SOL     OW 6099   6.573   5.832   2.783 -0.1394  0.3315 -0.8142
 1553SOL    HW1 6100   6.564   5.854   2.690  1.2978  1.0016 -0.8154
 1553SOL    HW2 6101   6.500   5.877   2.825 -0.2271  0.8549 -1.4997
 1554SOL     OW 6102   6.876   3.174   3.260 -0.8164 -0.2373  0.4505
 1554SOL    HW1 6103   6.798   3.175   3.316 -0.4594 -1.0206  0.9757
 1554SOL    HW2 6104   6.943   3.218   3.312 -0.7034 -0.2380  0.3070
 1555SOL     OW 6105   5.397   2.702  11.852 -0.1955 -0.0892  0.4218
 1555SOL    HW1 6106   5.484   2.663  11.843 -0.0026 -0.0407  1.7462
 1555SOL    HW2 6107   5.407   2.765  11.924 -1.2346  0.2101  0.3214
 1556SOL     OW 6108   2.050   1.365  10.955  0.2716  0.2140 -0.1773
 1556SOL    HW1 6109   2.090   1.407  11.031 -1.0290  2.1984 -0.5140
 1556SOL    HW2 6110   2.088   1.410  10.880 -0.3858  0.0596 -0.6111
 1557SOL     OW 6111   0.591   7.426   0.755 -0.1976 -0.5703 -0.1210
 1557SOL    HW1 6112   0.565   7.514   0.728  1.4925  0.2760  0.8474
 1557SOL    HW2 6113   0.577   7.372   0.677  1.7839  1.2036 -1.8354
 1558SOL     OW 6114   7.747   2.831   2.771 -0.3328 -0.7332  0.2769
 1558SOL    HW1 6115   7.789   2.915   2.790 -0.1361 -0.7260 -0.1771
 1558SOL    HW2 6116   7.819   2.768   2.768 -0.0062 -0.3437 -2.8125
 1559SOL     OW 6117   3.023   4.040   8.723  0.0681 -0.4778 -0.6989
 1559SOL    HW1 6118   3.065   4.075   8.802 -1.4493 -2.7347  1.2013
 1559SOL    HW2 6119   2.991   4.118   8.677 -1.4518  0.8647  2.3378
 1560SOL     OW 6120   6.237   6.069  10.114  0.0475  0.1035 -0.1650
 1560SOL    HW1 6121   6.317   6.019  10.131  1.1243  2.1960  1.4151
 1560SOL    HW2 6122   6.253   6.114  10.032  0.5057  0.4962  0.1353
 1561SOL     OW 6123   5.989   7.392   7.762 -0.2113  0.1504 -0.7066
 1561SOL    HW1 6124   5.899   7.425   7.758 -0.1381  0.4750  0.0909
 1561SOL    HW2 6125   6.010   7.390   7.856 -0.7598 -3.7506 -0.4939
 1562SOL     OW 6126   1.177   3.527   3.344  0.3985 -0.0700 -0.2000
 1562SOL    HW1 6127   1.193   3.502   3.253 -0.7719 -0.8366 -0.2108
 1562SOL    HW2 6128   1.131   3.611   3.339 -0.6934 -0.6682 -0.3673
 1563SOL     OW 6129   2.218   1.782   4.490 -0.4238  0.1909 -0.1638
 1563SOL    HW1 6130   2.305   1.744   4.473 -0.4275  1.3298 -3.3133
 1563SOL    HW2 6131   2.233   1.845   4.561  1.2204 -0.0295 -0.2769
 1564SOL     OW 6132   2.304   2.043  10.021 -0.2133  0.2394 -0.3144
 1564SOL    HW1 6133   2.301   1.948  10.036  1.5429 -0.0015 -1.3220
 1564SOL    HW2 6134   2.284   2.053   9.928  0.4549  0.7739 -0.4051
 1565SOL     OW 6135   5.463   1.589   8.787 -0.2294  0.1469  0.2533
 1565SOL    HW1 6136   5.472   1.683   8.772 -1.6080  0.3445  0.5515
 1565SOL    HW2 6137   5.460   1.551   8.699  2.2585  0.1382  0.1144
 1566SOL     OW 6138   5.839   0.274   3.413 -0.2024 -0.0316 -0.9030
 1566SOL    HW1 6139   5.787   0.194   3.415 -1.2754  0.6574  0.2618
 1566SOL    HW2 6140   5.888   0.269   3.331 -1.7268 -0.9603 -1.8023
 1567SOL     OW 6141   7.708   6.963  10.252  0.4958 -0.2640  0.4020
 1567SOL    HW1 6142   7.803   6.956  10.247  0.3715 -1.1077 -1.5128
 1567SOL    HW2 6143   7.677   6.873  10.263 -0.1666 -0.4225 -2.1083
 1568SOL     OW 6144   3.699   1.046   4.439 -0.0880  0.4891 -0.0310
 1568SOL    HW1 6145   3.646   0.985   4.388  1.1185  0.4350 -1.2852
 1568SOL    HW2 6146   3.641   1.075   4.510 -1.1179 -1.0664 -0.1872
 1569SOL     OW 6147   7.091   6.895   9.600 -0.0714  0.4032 -0.2482
 1569SOL    HW1 6148   7.186   6.883   9.599 -0.1072  0.1402 -1.0083
 1569SOL    HW2 6149   7.078   6.981   9.640  0.4955  0.5475 -0.3656
 1570SOL     OW 6150   4.242   3.615   6.729 -0.2689 -0.6248 -0.1568
 1570SOL    HW1 6151   4.183   3.610   6.654 -0.3687  2.3712 -0.3866
 1570SOL    HW2 6152   4.185   3.640   6.802  0.2547 -0.6757  0.2773
 1571SOL     OW 6153   4.519   6.897   1.733  0.6311  0.0985 -0.5220
 1571SOL    HW1 6154   4.521   6.803   1.753  1.2995  0.1646 -0.2529
 1571SOL    HW2 6155   4.427   6.915   1.714  0.2837 -0.3505  0.6595
 1572SOL     OW 6156   3.744   7.277   6.722  0.1059 -0.9218 -0.0416
 1572SOL    HW1 6157   3.720   7.197   6.674  1.3855 -1.4822  0.2115
 1572SOL    HW2 6158   3.695   7.272   6.804  1.8895 -2.6510  0.9939
 1573SOL     OW 6159   7.119   5.405  12.137  0.0469 -0.4247 -0.0411
 1573SOL    HW1 6160   7.097   5.339  12.071  0.4505  0.0460 -0.6534
 1573SOL    HW2 6161   7.192   5.453  12.100 -1.5259  1.7037 -0.5451
 1574SOL     OW 6162   6.711   5.432   4.011 -0.0320  0.2770 -0.0476
 1574SOL    HW1 6163   6.771   5.359   4.021  0.7409  0.4137 -2.9332
 1574SOL    HW2 6164   6.625   5.392   4.003  0.6971 -0.9647 -5.6805
 1575SOL     OW 6165   2.531   6.373   5.179 -0.4590 -0.1011 -0.0049
 1575SOL    HW1 6166   2.523   6.289   5.223 -2.7241  0.3917  0.6424
 1575SOL    HW2 6167   2.446   6.387   5.138 -0.6289  2.4581  1.0417
 1576SOL     OW 6168   1.592   5.373  10.999  0.1071  0.2322  0.2361
 1576SOL    HW1 6169   1.683   5.384  11.028 -0.4132  1.9308  1.3870
 1576SOL    HW2 6170   1.545   5.348  11.078 -0.7290  1.2712  0.0853
 1577SOL     OW 6171   6.004   4.140   3.124  0.2671  0.2082 -0.0129
 1577SOL    HW1 6172   5.922   4.183   3.099 -0.7104 -0.9610  1.0685
 1577SOL    HW2 6173   6.036   4.100   3.043  1.1048  2.6944 -1.0120
 1578SOL     OW 6174   0.109   4.668   9.494 -0.5057  0.6225 -0.0828
 1578SOL    HW1 6175   0.091   4.762   9.501  1.5455  1.1977 -1.5768
 1578SOL    HW2 6176   0.143   4.656   9.406  0.1631 -1.3843  0.3883
 1579SOL     OW 6177   7.652   7.557   7.254  0.2648 -0.4578 -0.3971
 1579SOL    HW1 6178   7.730   7.503   7.246 -0.2479 -1.2517 -0.1616
 1579SOL    HW2 6179   7.683   7.646   7.238  1.0910 -0.8314 -0.9723
 1580SOL     OW 6180   2.356   5.334   8.305  0.1309 -0.0143 -0.1406
 1580SOL    HW1 6181   2.316   5.303   8.225  0.7717 -2.0118  0.2529
 1580SOL    HW2 6182   2.364   5.429   8.294  0.7361 -0.3042 -2.6696
 1581SOL     OW 6183   0.216   0.128   8.767  0.0020  0.4265  0.3173
 1581SOL    HW1 6184   0.273   0.191   8.724  0.0414  0.1991  0.0344
 1581SOL    HW2 6185   0.251   0.121   8.856  0.3989  0.3093  0.1551
 1582SOL     OW 6186   0.941   2.768   8.741 -0.0891  0.5144  0.4882
 1582SOL    HW1 6187   0.846   2.768   8.743 -0.1992 -2.5879  0.3247
 1582SOL    HW2 6188   0.964   2.778   8.649 -0.2703  0.7053  0.4647
 1583SOL     OW 6189   0.909   6.678   3.320  0.2128  0.1642  0.0646
 1583SOL    HW1 6190   0.814   6.673   3.305  0.4512  0.0390 -1.6992
 1583SOL    HW2 6191   0.923   6.635   3.404 -0.9453 -3.0164 -1.2426
 1584SOL     OW 6192   1.619   3.739   9.148 -0.2009  0.4075 -0.2103
 1584SOL    HW1 6193   1.545   3.680   9.134  0.1685 -0.0089 -0.4464
 1584SOL    HW2 6194   1.684   3.685   9.193 -0.8592  1.3673  1.9775
 1585SOL     OW 6195   1.610   2.954  10.733 -0.0843 -0.1007 -0.1959
 1585SOL    HW1 6196   1.678   3.019  10.717 -0.9633  0.7029 -0.7874
 1585SOL    HW2 6197   1.530   3.005  10.744 -0.5791 -1.0143  0.6238
 1586SOL     OW 6198   0.300   6.322   1.460 -0.4481  0.4003  0.1037
 1586SOL    HW1 6199   0.227   6.377   1.432 -1.2111 -0.5270  0.2007
 1586SOL    HW2 6200   0.378   6.374   1.443 -1.1563  1.5844  0.4020
 1587SOL     OW 6201   0.295   2.736   4.960 -0.5779  0.5305 -0.4773
 1587SOL    HW1 6202   0.223   2.799   4.952 -1.8340 -0.8112 -0.2065
 1587SOL    HW2 6203   0.289   2.704   5.050  0.2367  0.2382 -0.5180
 1588SOL     OW 6204   1.894   1.324   4.998 -0.6376 -0.0925  0.0492
 1588SOL    HW1 6205   1.858   1.399   5.045  0.5897  1.1214 -0.8686
 1588SOL    HW2 6206   1.917   1.262   5.067 -2.2540  0.0761  0.7824
 1589SOL     OW 6207   4.446   1.898   7.252 -0.1804 -0.2473  0.0468
 1589SOL    HW1 6208   4.453   1.814   7.298 -0.7044  0.6250  1.8072
 1589SOL    HW2 6209   4.533   1.912   7.214  1.1253  0.1333  2.9161
 1590SOL     OW 6210   5.117   4.166   6.762 -0.0016 -0.3718 -0.0613
 1590SOL    HW1 6211   5.097   4.136   6.673 -1.8363 -1.2248  0.5784
 1590SOL    HW2 6212   5.031   4.188   6.799  0.9418  3.0350  0.5098
 1591SOL     OW 6213   4.275   2.848   8.859  0.2522  0.1187  0.6809
 1591SOL    HW1 6214   4.246   2.934   8.891 -0.3415  1.0536 -2.1191
 1591SOL    HW2 6215   4.284   2.859   8.764 -0.3292 -3.0452  0.1448
 1592SOL     OW 6216   3.987   6.382   6.788 -0.3811 -0.5379 -0.1765
 1592SOL    HW1 6217   4.028   6.323   6.725  0.2379 -0.6043  0.2722
 1592SOL    HW2 6218   4.051   6.453   6.800 -0.0907 -0.9830  1.0285
 1593SOL     OW 6219   1.100   4.818   9.557  0.0929 -0.0502 -0.5542
 1593SOL    HW1 6220   1.155   4.810   9.479 -0.8079 -2.0466 -1.0482
 1593SOL    HW2 6221   1.029   4.876   9.531  0.7948  0.8163 -0.5907
 1594SOL     OW 6222   0.207   2.226   0.932 -0.5587  0.7502 -0.7172
 1594SOL    HW1 6223   0.141   2.160   0.912  0.5701 -0.4698 -0.5759
 1594SOL    HW2 6224   0.177   2.269   1.012 -0.6634 -0.5187 -0.0626
 1595SOL     OW 6225   3.932   1.066   7.724  0.3659 -0.0314 -0.3186
 1595SOL    HW1 6226   3.977   1.079   7.641  1.4685  2.1586  0.5423
 1595SOL    HW2 6227   3.997   1.022   7.780  0.1196 -0.2287 -0.1855
 1596SOL     OW 6228   7.069   6.546   6.693  0.0581  0.6644  0.1591
 1596SOL    HW1 6229   7.061   6.468   6.747  3.4216 -0.4580 -0.7563
 1596SOL    HW2 6230   7.159   6.576   6.707 -1.0129  4.3703  0.3397
 1597SOL     OW 6231   5.289   5.830   8.296 -0.7577 -0.7352 -0.3956
 1597SOL    HW1 6232   5.267   5.747   8.339 -0.6174 -1.5933 -1.9107
 1597SOL    HW2 6233   5.384   5.829   8.290 -0.7027 -0.0820  0.2916
 1598SOL     OW 6234   6.015   3.344   6.725  0.2358  0.1290  0.2191
 1598SOL    HW1 6235   6.050   3.276   6.781  0.7056  1.9191  2.2063
 1598SOL    HW2 6236   6.061   3.424   6.750 -0.7150  1.3399 -1.5839
 1599SOL     OW 6237   4.222   0.287   5.090 -0.1722  0.0301  0.0406
 1599SOL    HW1 6238   4.191   0.257   5.005  1.1706 -0.9974 -0.1264
 1599SOL    HW2 6239   4.224   0.207   5.144  0.2483  0.4278  0.6281
 1600SOL     OW 6240   3.363   0.592   0.197 -0.3094 -0.6711  0.2364
 1600SOL    HW1 6241   3.419   0.666   0.175 -0.9782 -0.5638 -1.2789
 1600SOL    HW2 6242   3.409   0.547   0.268 -0.3908  1.7396  1.9268
 1601SOL     OW 6243   6.628   2.426   7.065  0.5273 -0.7035  0.8725
 1601SOL    HW1 6244   6.544   2.415   7.109 -1.1685  1.4510 -1.5535
 1601SOL    HW2 6245   6.633   2.353   7.004 -0.4003  0.0194 -0.1010
 1602SOL     OW 6246   7.621   4.197   7.785 -0.0754 -0.5745 -0.1577
 1602SOL    HW1 6247   7.694   4.257   7.765  0.5899 -1.1699  0.4212
 1602SOL    HW2 6248   7.593   4.166   7.699 -0.2756  0.3732 -0.4529
 1603SOL     OW 6249   3.273   7.741   0.088 -0.5803  0.2176  0.2216
 1603SOL    HW1 6250   3.257   7.816   0.031  0.3363  2.4746  2.7123
 1603SOL    HW2 6251   3.186   7.717   0.121 -0.7719  0.8656  0.1941
 1604SOL     OW 6252   4.255   7.671  10.292  0.8862  0.2776 -0.2889
 1604SOL    HW1 6253   4.195   7.725  10.241  1.9051  1.0908 -0.6682
 1604SOL    HW2 6254   4.212   7.585  10.297  0.2030  0.5320 -1.4656
 1605SOL     OW 6255   4.855   1.021   8.209 -0.1822  0.0392  0.5565
 1605SOL    HW1 6256   4.802   0.986   8.281  0.1160  1.0344  1.2867
 1605SOL    HW2 6257   4.798   1.085   8.166 -0.3734 -0.5861 -0.1225
 1606SOL     OW 6258   3.600   0.977   4.945  0.2334 -0.1385 -0.2538
 1606SOL    HW1 6259   3.598   0.910   4.876  0.8806 -0.0655 -0.3493
 1606SOL    HW2 6260   3.606   0.928   5.027 -0.6570 -0.2296 -0.2285
 1607SOL     OW 6261   5.401   1.861  10.695 -0.1502  0.0446  0.1524
 1607SOL    HW1 6262   5.406   1.944  10.743  0.2319 -0.0521  0.2883
 1607SOL    HW2 6263   5.358   1.801  10.756 -1.3615  0.3978 -0.3224
 1608SOL     OW 6264   2.213   4.496   9.900  0.9535 -0.3884  0.2038
 1608SOL    HW1 6265   2.244   4.417   9.857  1.4201 -0.5972  0.8992
 1608SOL    HW2 6266   2.120   4.481   9.915  1.0868 -0.9152  0.5395
 1609SOL     OW 6267   5.829   1.051   7.725  0.0867  0.2322 -0.2529
 1609SOL    HW1 6268   5.748   1.101   7.728  0.1083  0.2507  0.0648
 1609SOL    HW2 6269   5.877   1.088   7.651 -1.2620 -1.4439 -2.0889
 1610SOL     OW 6270   4.795   4.871   0.390 -0.0724 -0.3305 -0.4239
 1610SOL    HW1 6271   4.759   4.799   0.443  1.7191 -0.6868  0.3873
 1610SOL    HW2 6272   4.792   4.838   0.301  0.1690 -1.1907 -0.1250
 1611SOL     OW 6273   6.900   4.282   9.104 -0.6477  0.2837  0.0314
 1611SOL    HW1 6274   6.892   4.315   9.015 -1.2049  2.8436  0.9286
 1611SOL    HW2 6275   6.850   4.345   9.157  2.1566  0.6385  2.4977
 1612SOL     OW 6276   0.696   4.553   1.330 -0.2032  0.0533  0.5234
 1612SOL    HW1 6277   0.755   4.595   1.393  0.0502 -0.5752  0.7116
 1612SOL    HW2 6278   0.646   4.490   1.382  0.8425 -1.3289 -0.1052
 1613SOL     OW 6279   6.788   2.914   3.512 -0.0918 -0.3235  0.5441
 1613SOL    HW1 6280   6.859   2.910   3.448 -0.7059 -2.6275 -0.0879
 1613SOL    HW2 6281   6.710   2.884   3.464 -0.8344 -0.8968  2.0279
 1614SOL     OW 6282   2.824   6.295   0.351 -0.2959 -0.1217  0.3451
 1614SOL    HW1 6283   2.808   6.383   0.385  0.0150  0.0519  0.0528
 1614SOL    HW2 6284   2.908   6.302   0.306 -0.9807 -0.1656 -1.0170
 1615SOL     OW 6285   3.470   3.164   8.068  0.6667 -0.1792  0.3742
 1615SOL    HW1 6286   3.500   3.217   7.993 -2.3440  0.1712 -0.7276
 1615SOL    HW2 6287   3.514   3.203   8.143  0.1269  2.6663 -0.6469
 1616SOL     OW 6288   3.022   0.670  10.167 -0.6487  0.3448  0.0394
 1616SOL    HW1 6289   3.049   0.730  10.236 -1.8185 -0.6358  1.4277
 1616SOL    HW2 6290   3.083   0.596  10.174  0.5021  1.1169 -1.3613
 1617SOL     OW 6291   3.776   4.780   7.334 -0.0985 -0.0387  0.2104
 1617SOL    HW1 6292   3.848   4.788   7.271  0.8810 -3.0452  0.7761
 1617SOL    HW2 6293   3.798   4.701   7.385 -2.3004  0.6590  2.4213
 1618SOL     OW 6294   1.991   1.119   5.602 -0.3999 -0.1757  0.5965
 1618SOL    HW1 6295   1.984   1.214   5.609  1.2405 -0.0740  1.5075
 1618SOL    HW2 6296   2.075   1.105   5.558  0.0690 -1.2042  1.7619
 1619SOL     OW 6297   1.551   2.380   6.741 -0.0346 -0.1561 -0.1539
 1619SOL    HW1 6298   1.529   2.322   6.814  0.8946  0.2329  0.4451
 1619SOL    HW2 6299   1.508   2.463   6.762 -2.8648 -1.0290 -1.8613
 1620SOL     OW 6300   4.587   1.501   8.027 -0.1105  0.3164 -0.4819
 1620SOL    HW1 6301   4.674   1.489   7.989  0.0759 -0.5552  0.1812
 1620SOL    HW2 6302   4.536   1.543   7.958  0.5680 -0.0544 -1.2267
 1621SOL     OW 6303   7.112   1.671  10.918 -0.2127 -0.2556 -0.2474
 1621SOL    HW1 6304   7.133   1.655  10.826  1.3969  1.2769 -0.2047
 1621SOL    HW2 6305   7.018   1.688  10.918 -0.3858 -1.0645 -1.4680
 1622SOL     OW 6306   7.329   7.507  10.477  0.5811 -0.0039  0.1389
 1622SOL    HW1 6307   7.295   7.587  10.518  0.9192 -0.5086  1.4453
 1622SOL    HW2 6308   7.414   7.533  10.441 -0.5954  0.9768 -2.1686
 1623SOL     OW 6309   3.212   6.428  12.000 -0.1667  0.2286 -0.0375
 1623SOL    HW1 6310   3.169   6.346  12.024 -1.4821  0.7613 -0.4647
 1623SOL    HW2 6311   3.278   6.441  12.067 -0.7610 -0.5587  0.7261
 1624SOL     OW 6312   0.096   5.321   2.338 -0.0173  0.2739 -0.5093
 1624SOL    HW1 6313   0.162   5.380   2.374 -0.4256  0.1677  0.4440
 1624SOL    HW2 6314   0.144   5.240   2.318  0.4211  0.6966 -1.2441
 1625SOL     OW 6315   0.789   5.984   4.121  0.3695 -0.0320 -0.4746
 1625SOL    HW1 6316   0.814   6.021   4.037  1.6126 -0.7847 -0.4613
 1625SOL    HW2 6317   0.849   5.910   4.133 -2.5266 -2.6564 -0.9274
 1626SOL     OW 6318   7.610   0.869   4.796 -0.8806  0.1732  0.1948
 1626SOL    HW1 6319   7.580   0.866   4.705 -0.2559  1.5715 -0.0824
 1626SOL    HW2 6320   7.591   0.958   4.825 -1.0160 -0.2349  1.4260
 1627SOL     OW 6321   6.051   1.333  10.759 -0.1202 -0.5001 -0.9096
 1627SOL    HW1 6322   6.032   1.312  10.667 -3.4084  0.3324 -0.5452
 1627SOL    HW2 6323   6.068   1.427  10.759 -0.6205 -0.4032 -0.6433
 1628SOL     OW 6324   3.778   3.434  10.397 -0.1189 -0.5779  1.0246
 1628SOL    HW1 6325   3.687   3.407  10.383 -1.0458  2.4258  0.5398
 1628SOL    HW2 6326   3.826   3.394  10.325 -1.7413  0.5832 -0.7981
 1629SOL     OW 6327   7.839   5.382   0.578  0.0798  0.5246 -0.2176
 1629SOL    HW1 6328   7.886   5.391   0.495  2.0352  0.8970  0.8607
 1629SOL    HW2 6329   7.907   5.360   0.642 -0.9859  2.3147  1.6824
 1630SOL     OW 6330   6.271   5.241   0.146  0.0738  0.2878  0.0949
 1630SOL    HW1 6331   6.202   5.177   0.130  1.3421 -0.9779 -0.5663
 1630SOL    HW2 6332   6.279   5.290   0.064 -1.3176  1.7696  0.8007
 1631SOL     OW 6333   2.934   3.404   6.767  0.0792  0.9121 -0.6213
 1631SOL    HW1 6334   2.870   3.339   6.793 -0.3387  1.7336  0.4910
 1631SOL    HW2 6335   2.952   3.386   6.675 -0.4335 -0.4119 -0.4710
 1632SOL     OW 6336   4.734   4.642  10.506  0.5712  0.6099  0.2617
 1632SOL    HW1 6337   4.705   4.579  10.571  0.0490  0.2720 -0.2952
 1632SOL    HW2 6338   4.654   4.682  10.473  0.8954  1.6669  0.6980
 1633SOL     OW 6339   1.964   3.168  11.820 -0.2256  0.2589 -0.1525
 1633SOL    HW1 6340   2.057   3.167  11.799 -0.4870 -0.1150 -1.3940
 1633SOL    HW2 6341   1.960   3.151  11.914  0.8828 -2.1228 -0.4669
 1634SOL     OW 6342   6.303   5.794   9.359 -0.4728 -0.0827  0.7850
 1634SOL    HW1 6343   6.318   5.762   9.448  0.4399  0.9052  1.0125
 1634SOL    HW2 6344   6.360   5.871   9.352  1.6491 -1.7100 -1.5500
 1635SOL     OW 6345   7.027   4.627   4.027 -0.3100 -0.3839  0.4171
 1635SOL    HW1 6346   7.086   4.703   4.026 -0.2173 -0.4464 -1.0462
 1635SOL    HW2 6347   6.967   4.644   4.100  0.2140  0.7022  0.6107
 1636SOL     OW 6348   1.869   4.340   4.708  0.2422  0.3140  0.1242
 1636SOL    HW1 6349   1.847   4.288   4.631 -2.0339 -0.0417  0.9062
 1636SOL    HW2 6350   1.946   4.297   4.745 -0.2313 -1.1413 -0.5030
 1637SOL     OW 6351   1.503   7.487  12.088 -0.1844 -0.1924 -0.0988
 1637SOL    HW1 6352   1.522   7.494  12.181  0.5903  0.0255 -0.2718
 1637SOL    HW2 6353   1.424   7.541  12.076 -0.8691 -1.0009  0.5903
 1638SOL     OW 6354   3.891   2.182   7.127 -0.7081 -0.4263 -0.3760
 1638SOL    HW1 6355   3.844   2.222   7.200 -2.0085  2.0700 -2.4073
 1638SOL    HW2 6356   3.853   2.096   7.117 -2.6509  0.3448  0.0276
 1639SOL     OW 6357   3.071   0.016  11.700 -0.1400  0.2571 -0.2954
 1639SOL    HW1 6358   3.138   0.052  11.642  1.8004 -3.1496 -0.4419
 1639SOL    HW2 6359   3.030  -0.053  11.648  1.0662 -2.3320  1.9531
 1640SOL     OW 6360   7.833   3.543   3.850 -0.2765 -0.6746  0.1644
 1640SOL    HW1 6361   7.916   3.584   3.873 -0.4098 -0.0582 -0.4324
 1640SOL    HW2 6362   7.815   3.573   3.761 -0.3781 -2.0357 -0.3012
 1641SOL     OW 6363   2.274   1.340   9.929 -0.0776  0.0145  0.1661
 1641SOL    HW1 6364   2.314   1.380  10.006  0.4390 -1.4163  0.6687
 1641SOL    HW2 6365   2.218   1.271   9.963 -1.1529  0.4272 -0.6707
 1642SOL     OW 6366   0.090   7.346   8.855  0.3063  0.7549  0.6934
 1642SOL    HW1 6367   0.182   7.345   8.881  0.4257  0.8827  0.2863
 1642SOL    HW2 6368   0.071   7.255   8.831 -0.2765  0.2606  2.8019
 1643SOL     OW 6369   7.789   3.587   3.561 -0.2178 -0.6960  0.4814
 1643SOL    HW1 6370   7.857   3.628   3.508  0.5812 -1.7597  0.6501
 1643SOL    HW2 6371   7.794   3.494   3.538 -1.2914 -0.8570  0.8632
 1644SOL     OW 6372   7.364   3.261   2.045 -0.8861 -0.3961  0.2417
 1644SOL    HW1 6373   7.379   3.341   2.094  0.8772 -1.6364  1.9078
 1644SOL    HW2 6374   7.270   3.244   2.054 -1.6419  2.2497 -1.5579
 1645SOL     OW 6375   4.269   5.693   7.813  0.6169  0.1834 -0.1713
 1645SOL    HW1 6376   4.194   5.645   7.778  1.7997 -2.3128  0.5062
 1645SOL    HW2 6377   4.245   5.712   7.904  0.9516 -1.0018  0.1762
 1646SOL     OW 6378   1.442   0.145  11.582  0.1262 -0.1218 -0.2622
 1646SOL    HW1 6379   1.470   0.142  11.674  1.2932 -0.0763 -0.6003
 1646SOL    HW2 6380   1.447   0.054  11.553  0.4100 -0.0362 -0.4739
 1647SOL     OW 6381   7.615   7.142   9.842  0.2099  0.0331 -0.0029
 1647SOL    HW1 6382   7.661   7.161   9.924 -0.0266  1.6057 -0.2022
 1647SOL    HW2 6383   7.523   7.135   9.866  0.1962  0.0034 -0.0634
 1648SOL     OW 6384   6.130   5.434   3.590  0.1622  0.5927 -0.3011
 1648SOL    HW1 6385   6.213   5.445   3.543 -1.3842  1.9541 -2.9463
 1648SOL    HW2 6386   6.088   5.361   3.546 -0.4282  0.4684  0.4552
 1649SOL     OW 6387   3.836   6.559  11.953  0.0225  0.1373 -0.2076
 1649SOL    HW1 6388   3.785   6.498  12.007 -1.5135 -0.7640 -2.5631
 1649SOL    HW2 6389   3.889   6.502  11.897  1.1141  1.0439 -0.1269
 1650SOL     OW 6390   6.541   6.755   0.906  0.1429  0.5478  0.4959
 1650SOL    HW1 6391   6.499   6.681   0.949  0.0429 -0.4665 -1.2519
 1650SOL    HW2 6392   6.613   6.716   0.856 -0.7396  1.3852 -1.5507
 1651SOL     OW 6393   2.690   6.792   2.171  0.0865 -0.4131  0.1805
 1651SOL    HW1 6394   2.623   6.804   2.103  0.5567  1.9482  0.0474
 1651SOL    HW2 6395   2.773   6.797   2.124  0.4310  1.6123  0.9069
 1652SOL     OW 6396   2.287   0.009  11.153  0.4537  0.4449 -0.4881
 1652SOL    HW1 6397   2.218   0.034  11.091 -0.4020  0.1033  0.3062
 1652SOL    HW2 6398   2.288  -0.086  11.151 -1.1733  0.3201  1.6679
 1653SOL     OW 6399   6.275   6.827   4.943  0.4863  0.3506  0.0459
 1653SOL    HW1 6400   6.325   6.831   4.861 -1.0405 -1.1170 -1.0241
 1653SOL    HW2 6401   6.230   6.912   4.947  2.0470  1.1896  0.3874
 1654SOL     OW 6402   3.425   3.095   7.169  0.1486  0.5034 -1.1517
 1654SOL    HW1 6403   3.390   3.182   7.189 -0.9349 -0.4009  1.3265
 1654SOL    HW2 6404   3.375   3.067   7.092 -0.9956  1.2521 -0.7232
 1655SOL     OW 6405   5.483   0.562  12.042 -0.2683 -0.0559 -0.1518
 1655SOL    HW1 6406   5.506   0.469  12.042  0.3572  0.0769 -1.1692
 1655SOL    HW2 6407   5.427   0.572  11.965 -0.0325  0.4713 -0.2547
 1656SOL     OW 6408   3.102   6.011   1.482  0.5809 -0.7977 -0.1913
 1656SOL    HW1 6409   3.153   6.073   1.535  1.4172 -0.8464 -0.9127
 1656SOL    HW2 6410   3.045   5.968   1.544  1.7850 -1.1005  0.7424
 1657SOL     OW 6411   2.603   2.088   4.768 -0.2365  0.1938  0.0305
 1657SOL    HW1 6412   2.629   2.033   4.841 -0.0311  0.9375  0.5238
 1657SOL    HW2 6413   2.595   2.176   4.805  2.1622  1.0584 -1.3029
 1658SOL     OW 6414   2.910   3.273   2.281  0.1320 -0.7399  0.2320
 1658SOL    HW1 6415   2.873   3.203   2.335  0.5261 -0.8179  0.4083
 1658SOL    HW2 6416   2.927   3.344   2.343 -2.2089  0.3449 -0.2590
 1659SOL     OW 6417   0.679   1.256   3.810 -0.3757  0.3375 -0.1626
 1659SOL    HW1 6418   0.752   1.279   3.867 -1.4918 -0.2718  1.5771
 1659SOL    HW2 6419   0.718   1.248   3.723  1.4289  1.0028  0.5451
 1660SOL     OW 6420   4.869   0.111   6.917  0.3605  0.2347  0.3004
 1660SOL    HW1 6421   4.880   0.198   6.877  0.4384 -1.0025 -2.5569
 1660SOL    HW2 6422   4.869   0.050   6.844  0.7731 -2.2805  2.2530
 1661SOL     OW 6423   1.336   7.385  10.525 -0.1479  0.3550 -0.1428
 1661SOL    HW1 6424   1.402   7.379  10.456  0.6153 -1.0785  0.6624
 1661SOL    HW2 6425   1.279   7.309  10.510  0.5924 -0.5431  1.3234
 1662SOL     OW 6426   7.355   3.575   8.811  0.2154  0.2012  0.1733
 1662SOL    HW1 6427   7.433   3.573   8.867  0.5175 -0.8101 -0.2631
 1662SOL    HW2 6428   7.386   3.546   8.726 -1.1237 -3.1601  0.6702
 1663SOL     OW 6429   4.861   5.629   6.450 -0.1589  0.7727 -0.2935
 1663SOL    HW1 6430   4.856   5.721   6.421  0.8222  0.7951 -0.4452
 1663SOL    HW2 6431   4.953   5.606   6.437  0.0238  0.3484  1.5367
 1664SOL     OW 6432   3.185   1.847   8.343  0.3026 -0.5822  0.0369
 1664SOL    HW1 6433   3.271   1.854   8.385  0.5755  0.2879 -0.6389
 1664SOL    HW2 6434   3.150   1.764   8.375  0.8426 -0.3425  1.3311
 1665SOL     OW 6435   7.517   0.333   1.295 -0.0742  0.2556  0.0700
 1665SOL    HW1 6436   7.612   0.344   1.302 -0.1972  0.8718  1.0081
 1665SOL    HW2 6437   7.506   0.259   1.236  0.9843  0.3386 -0.2604
 1666SOL     OW 6438   7.781   3.813   6.547  0.0224  0.1637  0.0273
 1666SOL    HW1 6439   7.828   3.771   6.475  0.4953  0.4049  0.1907
 1666SOL    HW2 6440   7.688   3.798   6.528  0.1855 -1.1346  0.1963
 1667SOL     OW 6441   2.860   7.910   0.025  0.1812  0.1461 -0.1644
 1667SOL    HW1 6442   2.775   7.953   0.016 -0.4041 -1.0147 -0.3485
 1667SOL    HW2 6443   2.920   7.967  -0.023 -0.4369  1.1182  0.1916
 1668SOL     OW 6444   2.314   4.984   9.566  0.0210 -0.3660  0.2318
 1668SOL    HW1 6445   2.407   4.963   9.568  0.4427  1.0490 -1.5726
 1668SOL    HW2 6446   2.276   4.919   9.507  0.4381  0.7962 -1.3849
 1669SOL     OW 6447   4.047   0.948   2.936 -1.0009  0.1885 -0.3987
 1669SOL    HW1 6448   4.031   0.955   2.842 -1.2158  1.9244 -0.2726
 1669SOL    HW2 6449   4.070   1.037   2.962  2.2329 -0.8021  0.6431
 1670SOL     OW 6450   2.549   6.778  11.819  0.1607  0.1761  0.1119
 1670SOL    HW1 6451   2.516   6.722  11.749 -0.3198 -1.2499  1.4352
 1670SOL    HW2 6452   2.495   6.857  11.813  0.5947  0.3792 -1.5352
 1671SOL     OW 6453   2.388   5.147  12.412 -0.5393  0.3150 -0.2424
 1671SOL    HW1 6454   2.424   5.235  12.420 -1.9127  0.8951 -0.2398
 1671SOL    HW2 6455   2.410   5.104  12.495  1.1045  0.2487 -0.6700
 1672SOL     OW 6456   0.736   7.691   1.098 -0.6239 -0.0236  0.0242
 1672SOL    HW1 6457   0.820   7.728   1.123 -0.1594 -0.8505 -0.2896
 1672SOL    HW2 6458   0.757   7.604   1.063 -1.5319  0.0165 -0.6609
 1673SOL     OW 6459   3.897   5.342   6.752 -0.2594  0.5922  0.6021
 1673SOL    HW1 6460   3.860   5.264   6.793  0.2504  0.3357  0.5779
 1673SOL    HW2 6461   3.984   5.351   6.790  0.2050  0.3783 -0.3754
 1674SOL     OW 6462   3.296   7.201   4.647  0.3964 -0.5312  0.1012
 1674SOL    HW1 6463   3.246   7.157   4.579 -2.9997  1.3626  1.1622
 1674SOL    HW2 6464   3.360   7.254   4.599 -0.4094 -0.9411 -1.4936
 1675SOL     OW 6465   1.186   2.450   9.460 -0.5649 -0.2607  0.6495
 1675SOL    HW1 6466   1.264   2.502   9.480  0.1152 -0.9156 -0.1879
 1675SOL    HW2 6467   1.205   2.363   9.497 -2.2462  0.3457  3.2342
 1676SOL     OW 6468   3.517   6.663  10.320  0.1533  0.0208  0.1908
 1676SOL    HW1 6469   3.532   6.651  10.226  0.3400  1.0129  0.0893
 1676SOL    HW2 6470   3.569   6.740  10.343 -1.0560  0.6870  0.8047
 1677SOL     OW 6471   6.270   1.740  10.221  0.0558 -0.2816  0.4011
 1677SOL    HW1 6472   6.354   1.786  10.225  0.7616 -1.3007 -1.4790
 1677SOL    HW2 6473   6.218   1.790  10.159  0.3983 -1.3016 -0.7437
 1678SOL     OW 6474   0.608   2.222   8.203  0.4610  0.0891 -0.2989
 1678SOL    HW1 6475   0.622   2.301   8.150 -0.1280  0.2336 -0.2438
 1678SOL    HW2 6476   0.623   2.250   8.293  0.0021  0.2036 -0.2553
 1679SOL     OW 6477   0.713   3.801   0.513 -0.3468 -0.0364  0.0879
 1679SOL    HW1 6478   0.645   3.744   0.477 -0.3173  0.7316 -1.2533
 1679SOL    HW2 6479   0.721   3.773   0.604 -1.5610 -0.9909 -0.0579
 1680SOL     OW 6480   4.988   3.777   8.845  0.0003 -0.2508 -0.3806
 1680SOL    HW1 6481   4.950   3.843   8.902 -0.4286  0.2192 -1.2004
 1680SOL    HW2 6482   4.950   3.694   8.876  0.2257 -0.0708  0.3852
 1681SOL     OW 6483   0.020   6.822   0.782 -0.0165 -0.0662  0.0319
 1681SOL    HW1 6484  -0.046   6.769   0.827  0.1172  0.7954  1.2921
 1681SOL    HW2 6485   0.097   6.818   0.838  1.2149 -1.4457 -1.6557
 1682SOL     OW 6486   7.288   7.872  11.345 -0.3389 -0.3993 -0.2804
 1682SOL    HW1 6487   7.372   7.832  11.366 -0.6851 -0.4132  1.1786
 1682SOL    HW2 6488   7.311   7.957  11.307  0.3490  0.1463  1.2771
 1683SOL     OW 6489   4.704   4.615   5.785 -0.7150 -0.1342  0.9539
 1683SOL    HW1 6490   4.793   4.596   5.754 -0.4818  1.7437  0.3325
 1683SOL    HW2 6491   4.709   4.605   5.880 -0.3824 -1.9994  0.7798
 1684SOL     OW 6492   5.222   4.602   4.914  0.3546  0.1681  0.1710
 1684SOL    HW1 6493   5.234   4.697   4.908 -0.7912  0.3476  0.4556
 1684SOL    HW2 6494   5.175   4.589   4.996  0.1416 -0.6123 -0.0676
 1685SOL     OW 6495   4.260   6.564   0.976  0.5755 -0.0531  0.4506
 1685SOL    HW1 6496   4.237   6.599   0.890  0.9327 -2.2815 -0.6333
 1685SOL    HW2 6497   4.187   6.590   1.033  0.1014  1.0679 -0.6181
 1686SOL     OW 6498   2.808   1.870   9.891 -0.2475 -0.1734  0.0447
 1686SOL    HW1 6499   2.816   1.776   9.906  0.0192 -0.7813 -3.1098
 1686SOL    HW2 6500   2.833   1.882   9.799  0.4097  3.0973  0.5115
 1687SOL     OW 6501   6.384   7.687  10.889  0.0512 -0.1889  0.4988
 1687SOL    HW1 6502   6.473   7.691  10.855 -0.5789  0.6090 -1.2045
 1687SOL    HW2 6503   6.362   7.594  10.890  0.2904 -0.2824 -0.8716
 1688SOL     OW 6504   7.767   5.484  10.609 -0.3068 -0.0690  0.2528
 1688SOL    HW1 6505   7.720   5.414  10.654  0.1199 -1.2819 -1.1268
 1688SOL    HW2 6506   7.809   5.534  10.680  0.3681 -1.9407  1.2277
 1689SOL     OW 6507   0.966   7.730   0.807 -0.3524 -0.2608 -0.7546
 1689SOL    HW1 6508   1.047   7.684   0.785 -0.4612  0.0460 -1.8243
 1689SOL    HW2 6509   0.985   7.771   0.892 -0.2884 -2.3112  0.2836
 1690SOL     OW 6510   3.626   5.779   5.926 -0.4732  0.1749  0.0969
 1690SOL    HW1 6511   3.618   5.778   6.021 -0.6600 -0.5564  0.0807
 1690SOL    HW2 6512   3.650   5.689   5.903  1.1074  0.6951 -0.4255
 1691SOL     OW 6513   4.352   4.839   9.098  0.0476  0.2205  0.3330
 1691SOL    HW1 6514   4.395   4.837   9.184  0.0213 -1.3567  0.3398
 1691SOL    HW2 6515   4.409   4.787   9.042 -1.8997 -2.2162  0.4157
 1692SOL     OW 6516   7.859   7.294   5.789  0.6710  0.2959  0.3063
 1692SOL    HW1 6517   7.844   7.213   5.741 -0.0406  1.6258 -1.8914
 1692SOL    HW2 6518   7.881   7.266   5.878 -2.0045 -2.2414  0.3309
 1693SOL     OW 6519   5.568   0.164   3.246  0.1510 -0.1211  0.2317
 1693SOL    HW1 6520   5.610   0.133   3.326  1.2555 -0.9583 -0.6431
 1693SOL    HW2 6521   5.616   0.121   3.175 -1.1416  0.1814 -0.8713
 1694SOL     OW 6522   6.918   1.613   3.576 -0.2851 -0.3045  0.1237
 1694SOL    HW1 6523   7.005   1.594   3.540 -1.0444 -0.3602 -1.8316
 1694SOL    HW2 6524   6.934   1.678   3.645  1.2201  0.5695 -0.9812
 1695SOL     OW 6525   6.392   6.016   8.348 -0.8150 -0.6583 -0.1570
 1695SOL    HW1 6526   6.353   6.071   8.416 -1.0158 -1.2070  0.1726
 1695SOL    HW2 6527   6.318   5.993   8.291 -1.0206 -1.7757  0.5197
 1696SOL     OW 6528   0.161   6.808   7.908  0.7821 -0.2282  0.2750
 1696SOL    HW1 6529   0.088   6.783   7.851 -0.3720 -1.2112  2.0778
 1696SOL    HW2 6530   0.137   6.895   7.941  1.0763  0.0136 -0.1444
 1697SOL     OW 6531   6.488   7.951  11.578 -0.1942  0.3590 -0.5022
 1697SOL    HW1 6532   6.528   7.902  11.506  0.4258  1.1932 -0.7372
 1697SOL    HW2 6533   6.507   7.900  11.656  0.6887  0.3671 -0.7085
 1698SOL     OW 6534   5.987   3.207   5.812  0.4175  0.0888  0.3987
 1698SOL    HW1 6535   5.947   3.121   5.799  0.7038  0.2183 -1.7630
 1698SOL    HW2 6536   5.923   3.255   5.865 -1.7131 -0.1787 -1.7488
 1699SOL     OW 6537   0.961   2.877   1.169  0.4392  0.1310 -0.1487
 1699SOL    HW1 6538   0.930   2.948   1.113  1.9228  0.6211 -0.4047
 1699SOL    HW2 6539   0.894   2.809   1.162 -0.4644  1.0609 -0.7744
 1700SOL     OW 6540   6.844   4.364   6.477 -0.0554  0.1653  0.3924
 1700SOL    HW1 6541   6.874   4.309   6.550 -0.3719  0.7789  0.9934
 1700SOL    HW2 6542   6.880   4.451   6.497  0.5266  0.1728 -0.5995
 1701SOL     OW 6543   3.108   0.630   0.268 -0.0343 -0.8987 -0.5279
 1701SOL    HW1 6544   3.083   0.722   0.270 -0.9194 -1.1106  2.0261
 1701SOL    HW2 6545   3.198   0.629   0.234 -0.0399  0.8777 -0.6546
 1702SOL     OW 6546   1.871   4.642   1.612 -0.5473 -0.0530  0.7555
 1702SOL    HW1 6547   1.795   4.597   1.576  1.0119 -2.7697  0.5807
 1702SOL    HW2 6548   1.923   4.667   1.535 -0.0355 -0.5608  0.9291
 1703SOL     OW 6549   6.872   0.543   4.838 -0.1285 -0.1159 -0.0321
 1703SOL    HW1 6550   6.782   0.508   4.832 -0.2706  0.0375  1.0600
 1703SOL    HW2 6551   6.925   0.479   4.790 -0.2297 -2.4607  2.6983
 1704SOL     OW 6552   7.966   0.985   7.978 -0.4242  0.6643  0.3222
 1704SOL    HW1 6553   7.954   1.058   7.917 -0.5836  0.3413 -0.0381
 1704SOL    HW2 6554   8.061   0.972   7.982 -0.2960  1.7746  1.4497
 1705SOL     OW 6555   3.111   4.041   0.331 -0.4780  0.4595 -0.3438
 1705SOL    HW1 6556   3.188   4.089   0.298 -0.4985  0.6410 -0.1323
 1705SOL    HW2 6557   3.037   4.081   0.285 -0.3564 -0.4527 -1.3769
 1706SOL     OW 6558   5.761   1.173   5.186 -0.1298  0.2237 -0.1091
 1706SOL    HW1 6559   5.789   1.226   5.111 -1.8044  1.1948 -0.1137
 1706SOL    HW2 6560   5.839   1.167   5.242  0.5766  1.2403 -0.9445
 1707SOL     OW 6561   0.671   3.205   5.855 -0.1545 -0.3061 -0.4580
 1707SOL    HW1 6562   0.630   3.142   5.795  0.3885 -3.0949  1.8839
 1707SOL    HW2 6563   0.738   3.154   5.901 -2.3899  0.7070  4.5491
 1708SOL     OW 6564   5.964   1.458  11.622 -0.1566  0.4029 -0.0221
 1708SOL    HW1 6565   5.896   1.499  11.568 -1.1870  0.2419  1.1309
 1708SOL    HW2 6566   5.942   1.365  11.622 -0.3794  0.4543  0.9807
 1709SOL     OW 6567   7.060   6.236  11.378 -0.3565 -0.0676 -0.7214
 1709SOL    HW1 6568   6.987   6.225  11.318 -0.3865  2.4119 -1.2463
 1709SOL    HW2 6569   7.063   6.155  11.428 -2.4296 -0.8673 -1.8000
 1710SOL     OW 6570   0.101   0.378  10.694  0.7843 -0.5622 -0.1876
 1710SOL    HW1 6571   0.059   0.380  10.607 -0.8150 -1.3470  0.5267
 1710SOL    HW2 6572   0.191   0.403  10.677  1.4330 -3.8845 -2.6250
 1711SOL     OW 6573   6.054   2.420   6.139  0.3627  0.2515 -0.4226
 1711SOL    HW1 6574   6.002   2.352   6.094  0.7289 -0.5801  0.3810
 1711SOL    HW2 6575   6.145   2.400   6.115  0.5276  0.0439  0.3524
 1712SOL     OW 6576   6.266   2.218   4.727  0.1351 -0.5262  0.2272
 1712SOL    HW1 6577   6.201   2.285   4.750  1.4285  1.0878 -0.5958
 1712SOL    HW2 6578   6.263   2.214   4.631  0.3115 -1.4108  0.2530
 1713SOL     OW 6579   6.747   5.906  10.697  0.4069  0.1182 -0.6399
 1713SOL    HW1 6580   6.763   5.977  10.760  0.0094 -0.4473  0.1146
 1713SOL    HW2 6581   6.835   5.875  10.674  0.5442  0.0512 -0.0370
 1714SOL     OW 6582   3.004   0.091   1.160  0.2850  0.3778  0.5833
 1714SOL    HW1 6583   3.069   0.142   1.209  1.1259 -1.4873  1.5318
 1714SOL    HW2 6584   2.944   0.058   1.227  1.0225 -1.6123  0.3223
 1715SOL     OW 6585   5.556   3.920   3.677  0.1264  0.3266  0.1547
 1715SOL    HW1 6586   5.634   3.866   3.691 -0.1751 -0.8473 -2.1941
 1715SOL    HW2 6587   5.483   3.858   3.679 -0.5147  1.0648  0.0535
 1716SOL     OW 6588   7.818   1.248   7.299 -0.1710  0.5540 -0.3283
 1716SOL    HW1 6589   7.806   1.174   7.239 -0.3587 -0.7736  1.2516
 1716SOL    HW2 6590   7.845   1.207   7.382  0.3553  2.3248  0.4285
 1717SOL     OW 6591   5.068   6.657   7.735  0.4618  0.0395  0.8703
 1717SOL    HW1 6592   5.125   6.710   7.680  0.0440 -0.4662 -0.0732
 1717SOL    HW2 6593   4.993   6.713   7.752 -1.2481 -1.0386 -2.3226
 1718SOL     OW 6594   3.226   7.426   6.189 -0.5541 -0.0777 -0.1839
 1718SOL    HW1 6595   3.283   7.404   6.116  0.3897 -0.0281  0.5104
 1718SOL    HW2 6596   3.212   7.343   6.235  0.2643  0.1592  0.5314
 1719SOL     OW 6597   0.394   3.230   1.104 -0.7222 -0.5853 -0.1031
 1719SOL    HW1 6598   0.380   3.214   1.010  0.2472 -0.9556 -0.1942
 1719SOL    HW2 6599   0.350   3.314   1.120 -1.1241 -0.6437 -0.8308
 1720SOL     OW 6600   3.749   7.131   3.683 -0.0636  0.3605  0.0209
 1720SOL    HW1 6601   3.802   7.067   3.636 -0.2777  0.8149 -0.8649
 1720SOL    HW2 6602   3.663   7.090   3.689  0.0826  0.1076  0.4358
 1721SOL     OW 6603   3.705   4.142  12.291  0.4025 -0.8490  0.0385
 1721SOL    HW1 6604   3.627   4.109  12.247 -1.5067 -0.2995  2.7592
 1721SOL    HW2 6605   3.723   4.226  12.249  0.2136 -1.4818 -1.3385
 1722SOL     OW 6606   2.677   3.869   7.981  0.2238  0.2054  0.5688
 1722SOL    HW1 6607   2.675   3.774   7.992  0.6416 -0.0125 -1.0083
 1722SOL    HW2 6608   2.767   3.894   8.002  0.0172  0.3241  1.3576
 1723SOL     OW 6609   0.569   6.117   4.259 -0.4267 -0.0622  0.2134
 1723SOL    HW1 6610   0.650   6.073   4.234 -1.5840 -1.2835 -1.6895
 1723SOL    HW2 6611   0.556   6.184   4.192 -2.2106 -1.5779 -1.0878
 1724SOL     OW 6612   6.035   2.877   6.189 -0.1523 -0.1177 -0.7406
 1724SOL    HW1 6613   6.089   2.926   6.251 -1.3473  0.7875 -0.3699
 1724SOL    HW2 6614   5.987   2.944   6.141  0.6733 -0.8133 -2.6169
 1725SOL     OW 6615   3.839   4.845   1.833  0.4132  0.2896 -0.0324
 1725SOL    HW1 6616   3.853   4.751   1.847 -0.7050  0.4009  2.3120
 1725SOL    HW2 6617   3.927   4.882   1.833  0.8003 -0.5750  0.7185
 1726SOL     OW 6618   3.960   6.425   9.381 -0.2918 -0.5129 -0.1968
 1726SOL    HW1 6619   4.012   6.430   9.461 -0.2072  1.1483 -0.3116
 1726SOL    HW2 6620   3.959   6.332   9.358  0.6983 -0.8584  1.0620
 1727SOL     OW 6621   6.423   0.392  11.344 -0.0278 -0.3155 -0.0743
 1727SOL    HW1 6622   6.393   0.301  11.351 -0.2548 -0.3071 -0.7784
 1727SOL    HW2 6623   6.388   0.421  11.260  0.6181  0.2124 -0.1664
 1728SOL     OW 6624   7.198   3.209   0.118 -0.0343 -0.4541  0.0165
 1728SOL    HW1 6625   7.102   3.200   0.119 -0.0608 -0.4961 -1.2455
 1728SOL    HW2 6626   7.219   3.223   0.026  1.0233  1.3783  0.4954
 1729SOL     OW 6627   5.643   3.979   5.399 -0.0031 -0.0791  0.0734
 1729SOL    HW1 6628   5.617   3.993   5.307 -2.3068  0.4754  0.7287
 1729SOL    HW2 6629   5.730   3.941   5.394  0.6231  1.4482 -2.3026
 1730SOL     OW 6630   2.596   1.175   5.079  0.0642 -0.0737  0.0773
 1730SOL    HW1 6631   2.655   1.213   5.143  1.8399  0.8003 -1.9330
 1730SOL    HW2 6632   2.537   1.247   5.054 -1.3329 -0.6933  1.3995
 1731SOL     OW 6633   6.405   6.264   9.910  0.0182 -0.3398  0.3097
 1731SOL    HW1 6634   6.414   6.275   9.815  0.4372 -1.1370  0.2481
 1731SOL    HW2 6635   6.475   6.202   9.933 -0.2503 -0.3514  1.0976
 1732SOL     OW 6636   2.498   2.189   8.065 -0.0968  0.4662  0.1412
 1732SOL    HW1 6637   2.491   2.167   8.158 -0.7414  0.5061  0.1073
 1732SOL    HW2 6638   2.468   2.280   8.060 -0.1744  0.4261 -0.1228
 1733SOL     OW 6639   7.465   6.493   7.224  0.0440  0.3520  0.5307
 1733SOL    HW1 6640   7.500   6.415   7.182 -0.2237  0.7702 -0.5071
 1733SOL    HW2 6641   7.392   6.519   7.168  0.5147  1.6945  0.5079
 1734SOL     OW 6642   7.917   0.903   1.964  0.3797 -0.6010  0.0539
 1734SOL    HW1 6643   7.943   0.993   1.984 -0.7329 -0.2830  0.1269
 1734SOL    HW2 6644   7.826   0.897   1.994  0.8206 -2.1219  1.2137
 1735SOL     OW 6645   7.092   5.244   7.058  0.3446 -0.0297 -0.8979
 1735SOL    HW1 6646   7.026   5.302   7.094 -0.6526 -1.4441 -0.4015
 1735SOL    HW2 6647   7.114   5.184   7.129 -1.6219 -2.8380 -2.4778
 1736SOL     OW 6648   2.354   7.144   7.584 -0.0732  0.1703 -0.3200
 1736SOL    HW1 6649   2.417   7.077   7.559 -0.0065  0.5721 -1.2907
 1736SOL    HW2 6650   2.345   7.135   7.679  1.2027 -0.0915 -0.2142
 1737SOL     OW 6651   4.190   5.872   3.992 -0.3075  0.0339  0.7521
 1737SOL    HW1 6652   4.169   5.955   4.035 -0.2129 -0.3110  1.4850
 1737SOL    HW2 6653   4.277   5.850   4.025  0.2599  0.3205 -0.5042
 1738SOL     OW 6654   0.653   7.665   9.139 -0.2004  0.0294  0.4634
 1738SOL    HW1 6655   0.566   7.648   9.174  0.0286  0.6479  1.3883
 1738SOL    HW2 6656   0.689   7.734   9.196  0.8027 -0.0512 -0.0377
 1739SOL     OW 6657   4.681   7.491   3.755 -0.1979 -0.2105 -0.0117
 1739SOL    HW1 6658   4.769   7.465   3.730 -0.9310 -0.9018 -2.0448
 1739SOL    HW2 6659   4.648   7.419   3.809 -0.1615 -0.8457 -0.8170
 1740SOL     OW 6660   2.280   7.283   5.714 -0.3334 -0.1768 -0.3290
 1740SOL    HW1 6661   2.209   7.221   5.700 -1.1572  0.4794  0.7426
 1740SOL    HW2 6662   2.347   7.259   5.650 -1.5654 -0.7403 -1.4536
 1741SOL     OW 6663   3.666   2.897   6.569 -0.1648 -0.0508  0.0876
 1741SOL    HW1 6664   3.594   2.921   6.511 -0.6122 -1.4436  0.0199
 1741SOL    HW2 6665   3.639   2.928   6.655 -0.1919  0.6780 -0.1783
 1742SOL     OW 6666   7.860   1.343   0.754  0.2923 -0.2995 -0.1676
 1742SOL    HW1 6667   7.953   1.346   0.778  0.6006 -0.1570 -1.2884
 1742SOL    HW2 6668   7.815   1.385   0.826  1.2179  0.6116 -0.0988
 1743SOL     OW 6669   2.566   2.986   0.128 -0.4670  0.7328  0.5840
 1743SOL    HW1 6670   2.567   2.924   0.055  1.1790  1.1291  0.2386
 1743SOL    HW2 6671   2.656   2.989   0.159 -0.9820  1.1722  2.1453
 1744SOL     OW 6672   3.170   5.756   4.211  0.3282 -0.0964  0.6150
 1744SOL    HW1 6673   3.220   5.744   4.130  1.2853  0.4701  1.1130
 1744SOL    HW2 6674   3.123   5.673   4.222  0.2294 -0.1965 -0.4879
 1745SOL     OW 6675   3.240   0.228   1.385 -0.5706 -0.3463 -0.0061
 1745SOL    HW1 6676   3.295   0.253   1.310  0.1817  0.5027  0.7893
 1745SOL    HW2 6677   3.163   0.284   1.377  0.0159  0.5514  0.4422
 1746SOL     OW 6678   1.909   4.514   7.610  0.0177  0.1229  0.1553
 1746SOL    HW1 6679   1.892   4.440   7.669 -2.6145  0.8742  0.4301
 1746SOL    HW2 6680   2.005   4.521   7.608  0.2745 -2.0523  1.6460
 1747SOL     OW 6681   2.539   2.672   6.386  0.2423  0.3560 -0.0787
 1747SOL    HW1 6682   2.578   2.591   6.417  2.1113  1.6231  1.0815
 1747SOL    HW2 6683   2.444   2.656   6.388  0.5499 -1.5923  0.5942
 1748SOL     OW 6684   4.862   7.535   2.846  0.0169  0.1434  0.4242
 1748SOL    HW1 6685   4.863   7.490   2.930  1.1010  1.6493  1.2634
 1748SOL    HW2 6686   4.808   7.613   2.861 -0.7111 -0.1325 -0.6165
 1749SOL     OW 6687   7.074   3.115  10.762 -0.1022  0.7041  0.3210
 1749SOL    HW1 6688   7.079   3.184  10.695  1.8154  0.8968  0.5888
 1749SOL    HW2 6689   7.054   3.035  10.713 -0.9070  1.2103 -0.1881
 1750SOL     OW 6690   4.162   6.124   4.134  0.3592  0.5651 -0.0312
 1750SOL    HW1 6691   4.256   6.133   4.151  0.5004  1.7842 -1.3000
 1750SOL    HW2 6692   4.120   6.138   4.219  1.2807  0.8906  0.3778
 1751SOL     OW 6693   5.932   7.856   2.615  0.3735 -0.7267 -0.1906
 1751SOL    HW1 6694   5.869   7.812   2.558 -0.2029  0.3709 -0.4262
 1751SOL    HW2 6695   5.901   7.837   2.704 -0.5789  0.1723 -0.3078
 1752SOL     OW 6696   5.570   5.781   8.244  0.7395  0.4016 -0.1492
 1752SOL    HW1 6697   5.554   5.782   8.149 -1.4792  0.3488  0.1807
 1752SOL    HW2 6698   5.648   5.726   8.253  1.6628  1.2996 -2.0111
 1753SOL     OW 6699   1.372   4.584   5.089 -0.3225 -0.4197  0.2091
 1753SOL    HW1 6700   1.436   4.606   5.157  0.8900  0.9274 -1.2839
 1753SOL    HW2 6701   1.422   4.537   5.023 -1.3159 -1.0229 -0.1365
 1754SOL     OW 6702   4.653   1.208   9.229  0.1507 -0.2237 -0.3204
 1754SOL    HW1 6703   4.686   1.185   9.142 -0.0088 -0.8059 -0.2319
 1754SOL    HW2 6704   4.558   1.203   9.222  0.1579 -1.4360  0.1816
 1755SOL     OW 6705   5.378   0.476   2.094 -0.4393  0.0182  1.2396
 1755SOL    HW1 6706   5.417   0.551   2.139 -1.3593  1.2566  0.0695
 1755SOL    HW2 6707   5.287   0.503   2.077 -0.1280 -0.2834 -1.4293
 1756SOL     OW 6708   0.117   2.548   9.963 -0.1085  0.1174 -0.1102
 1756SOL    HW1 6709   0.091   2.517   9.876  0.0524  0.3642 -0.2447
 1756SOL    HW2 6710   0.205   2.514   9.976 -0.4232 -0.5723  0.2762
 1757SOL     OW 6711   3.426   5.886   1.281 -0.3728  0.2109 -0.5029
 1757SOL    HW1 6712   3.470   5.823   1.224 -0.0506 -0.3585  0.3561
 1757SOL    HW2 6713   3.333   5.872   1.265 -0.3043 -0.4942 -0.3204
 1758SOL     OW 6714   7.857   0.038   1.352  0.7418 -0.5201  0.0561
 1758SOL    HW1 6715   7.937   0.048   1.300  1.4294 -1.3257  0.9376
 1758SOL    HW2 6716   7.830  -0.052   1.338  0.7410 -0.6464  0.8094
 1759SOL     OW 6717   0.153   0.086   3.791 -0.5069 -0.2704  0.3805
 1759SOL    HW1 6718   0.170   0.012   3.733  0.8734  1.2808 -1.2768
 1759SOL    HW2 6719   0.213   0.073   3.865  1.8735  0.6214 -1.2832
 1760SOL     OW 6720   5.144   4.589   7.031 -0.5031 -0.2671 -0.1096
 1760SOL    HW1 6721   5.122   4.498   7.009  2.8933 -1.0416 -0.8034
 1760SOL    HW2 6722   5.162   4.588   7.124  3.8755 -1.5168 -0.7627
 1761SOL     OW 6723   7.830   4.247  11.953 -0.1774  0.5011  0.6084
 1761SOL    HW1 6724   7.889   4.187  11.999  1.2494  1.9216  0.7061
 1761SOL    HW2 6725   7.826   4.215  11.864 -1.4321 -1.1593  1.2104
 1762SOL     OW 6726   0.788   2.246   8.716  0.0162 -0.0520 -0.0048
 1762SOL    HW1 6727   0.783   2.155   8.687  0.7785 -0.7713  1.9576
 1762SOL    HW2 6728   0.869   2.279   8.677 -0.5754  0.0339 -1.2358
 1763SOL     OW 6729   6.415   1.636  10.609  0.6968 -0.1034  0.2376
 1763SOL    HW1 6730   6.329   1.664  10.576  0.3371 -1.3656  0.0464
 1763SOL    HW2 6731   6.395   1.581  10.684  1.4332  0.9308  1.2162
 1764SOL     OW 6732   2.918   4.922   4.063  0.4364 -0.1492 -0.0589
 1764SOL    HW1 6733   2.835   4.875   4.069 -1.5400  2.7158 -2.1710
 1764SOL    HW2 6734   2.937   4.948   4.153 -2.2473  1.0303  0.2710
 1765SOL     OW 6735   3.880   7.420   3.206  0.2332  0.4488  0.1549
 1765SOL    HW1 6736   3.828   7.342   3.227  0.8191  0.4972  1.9592
 1765SOL    HW2 6737   3.965   7.403   3.245  1.1618  0.9931 -1.5450
 1766SOL     OW 6738   6.628   1.110   1.955 -0.8744 -0.2372  0.9515
 1766SOL    HW1 6739   6.661   1.167   2.024  0.7028 -2.2269  1.9441
 1766SOL    HW2 6740   6.690   1.122   1.883 -1.2203  0.1497  0.7132
 1767SOL     OW 6741   4.652   1.654   6.613  0.6650  0.2260  0.3977
 1767SOL    HW1 6742   4.574   1.624   6.659 -0.9391 -1.3515 -2.9660
 1767SOL    HW2 6743   4.621   1.729   6.561  1.6290  0.2028 -0.2399
 1768SOL     OW 6744   2.143   0.517   8.657 -0.0965 -0.1493 -0.1284
 1768SOL    HW1 6745   2.067   0.572   8.640 -0.6639 -0.9889 -0.3463
 1768SOL    HW2 6746   2.209   0.577   8.691  0.3702  1.2457 -3.1516
 1769SOL     OW 6747   0.766   0.375   1.811  0.1987  0.5341  0.1087
 1769SOL    HW1 6748   0.829   0.311   1.777 -1.0001 -0.4594 -0.3017
 1769SOL    HW2 6749   0.706   0.390   1.738  0.2057  1.8174  0.3439
 1770SOL     OW 6750   7.242   4.206  11.857 -0.1187 -0.5551 -0.0620
 1770SOL    HW1 6751   7.333   4.237  11.854 -0.3284  0.0893 -0.0100
 1770SOL    HW2 6752   7.248   4.112  11.842  0.6697 -0.7393  1.2373
 1771SOL     OW 6753   3.284   7.275   1.932 -0.6080 -0.7511 -0.1710
 1771SOL    HW1 6754   3.331   7.248   1.854 -1.1770 -0.0331 -0.7744
 1771SOL    HW2 6755   3.303   7.206   1.996 -0.0020 -1.2600 -0.8748
 1772SOL     OW 6756   6.085   0.830   8.754 -0.1831 -0.2515  0.0040
 1772SOL    HW1 6757   5.995   0.858   8.740  0.0892  0.6200 -0.0507
 1772SOL    HW2 6758   6.106   0.777   8.677 -1.3574 -2.3598  1.0482
 1773SOL     OW 6759   4.463   1.548   5.171 -0.0049  0.2269  0.1345
 1773SOL    HW1 6760   4.424   1.605   5.237 -0.1427  0.2068  0.0699
 1773SOL    HW2 6761   4.513   1.606   5.115 -0.8303  0.3933 -0.4380
 1774SOL     OW 6762   4.234   1.396   2.054 -0.3410 -0.1826 -0.5243
 1774SOL    HW1 6763   4.234   1.491   2.055  0.5231 -0.1713  0.0637
 1774SOL    HW2 6764   4.221   1.371   2.146 -0.4817 -0.6264 -0.6620
 1775SOL     OW 6765   4.501   5.760  10.186  0.1674  0.2039  0.1849
 1775SOL    HW1 6766   4.505   5.693  10.117 -1.0116 -0.7864  1.0266
 1775SOL    HW2 6767   4.542   5.837  10.147 -0.1036 -0.4481 -1.4786
 1776SOL     OW 6768   0.661   2.165   9.458 -0.9070 -0.5778  0.5607
 1776SOL    HW1 6769   0.612   2.245   9.473 -1.9896 -0.6689 -1.9288
 1776SOL    HW2 6770   0.627   2.103   9.522 -1.1297  0.5050  1.5122
 1777SOL     OW 6771   2.801   7.479  11.841 -0.4843  0.2162  0.5920
 1777SOL    HW1 6772   2.732   7.421  11.809  0.1121  0.2121 -0.7381
 1777SOL    HW2 6773   2.799   7.468  11.936 -2.7499  0.7329  0.6562
 1778SOL     OW 6774   1.603   0.276   2.248  0.2085 -0.2239  0.3103
 1778SOL    HW1 6775   1.666   0.211   2.280  1.4528  1.3407  1.2160
 1778SOL    HW2 6776   1.519   0.231   2.251  1.2891 -2.6098 -1.5140
 1779SOL     OW 6777   7.208   2.732   8.607 -0.0347 -0.1676 -0.3638
 1779SOL    HW1 6778   7.210   2.646   8.565  2.5848 -0.2194 -0.3097
 1779SOL    HW2 6779   7.266   2.786   8.554 -0.6709  1.2348  0.3112
 1780SOL     OW 6780   0.836   2.483   5.023 -0.0822 -0.0742  0.7123
 1780SOL    HW1 6781   0.763   2.437   4.981 -0.3331 -1.5592  2.6327
 1780SOL    HW2 6782   0.890   2.515   4.951 -0.5699 -2.3522 -0.7388
 1781SOL     OW 6783   4.401   1.396   3.512 -0.0938 -0.4306 -0.2126
 1781SOL    HW1 6784   4.433   1.342   3.440  0.0334 -1.2224  0.4127
 1781SOL    HW2 6785   4.429   1.485   3.490  0.5175 -0.7594 -0.8132
 1782SOL     OW 6786   0.711   0.387   5.600 -0.2287  0.7195 -0.0542
 1782SOL    HW1 6787   0.687   0.337   5.522  0.2447 -0.3137  0.4365
 1782SOL    HW2 6788   0.659   0.348   5.670 -0.0854  1.1288  0.2820
 1783SOL     OW 6789   4.395   3.392   4.567  0.2452 -0.1537 -0.1102
 1783SOL    HW1 6790   4.469   3.336   4.544 -0.6855 -1.8961  0.8475
 1783SOL    HW2 6791   4.382   3.376   4.661 -0.1310  1.6397  0.1756
 1784SOL     OW 6792   7.828   1.800   5.945  0.2717 -0.2430 -0.4682
 1784SOL    HW1 6793   7.887   1.874   5.934 -0.3251  0.5508  1.2541
 1784SOL    HW2 6794   7.758   1.834   6.001  0.3470 -2.2942  0.9840
 1785SOL     OW 6795   5.013   2.601  12.395  0.3570 -0.0531 -0.3911
 1785SOL    HW1 6796   4.942   2.609  12.331 -0.6424 -0.6918  0.5755
 1785SOL    HW2 6797   5.012   2.684  12.443  1.4846  0.6511 -1.5407
 1786SOL     OW 6798   2.483   6.234   1.338 -0.0973  0.3056 -0.0134
 1786SOL    HW1 6799   2.422   6.161   1.351 -0.2952  0.5300  0.3253
 1786SOL    HW2 6800   2.553   6.197   1.284  0.0609 -0.2830  0.5690
 1787SOL     OW 6801   4.585   3.541   0.296  0.0417 -0.1093  0.1788
 1787SOL    HW1 6802   4.665   3.519   0.249  0.5608 -1.7863  1.7393
 1787SOL    HW2 6803   4.609   3.617   0.349  0.9024 -1.1000  1.2633
 1788SOL     OW 6804   5.413   0.141   3.716  0.1866  0.3746 -0.0828
 1788SOL    HW1 6805   5.460   0.094   3.647 -1.8353 -0.3923 -1.0307
 1788SOL    HW2 6806   5.400   0.229   3.681 -1.9900 -0.3750 -1.3710
 1789SOL     OW 6807   6.114   1.443   5.796  0.0157 -0.4441 -0.2974
 1789SOL    HW1 6808   6.100   1.481   5.882 -0.0903 -0.9947 -0.0703
 1789SOL    HW2 6809   6.209   1.451   5.782 -0.2746  2.1988 -1.3394
 1790SOL     OW 6810   0.692   6.708  11.011 -0.0709 -0.5497  0.2736
 1790SOL    HW1 6811   0.683   6.685  10.918  1.7639  1.8978 -0.6243
 1790SOL    HW2 6812   0.646   6.791  11.020  1.7631  0.4543  0.9379
 1791SOL     OW 6813   6.656   0.769  11.352  0.2701  0.3430 -0.1659
 1791SOL    HW1 6814   6.571   0.754  11.394  0.7253 -2.5322 -0.0781
 1791SOL    HW2 6815   6.712   0.802  11.423  0.2298 -1.6310  0.8805
 1792SOL     OW 6816   3.312   6.126   9.651 -0.0878 -0.0698 -0.2196
 1792SOL    HW1 6817   3.275   6.157   9.733 -0.0463 -0.6475  0.0235
 1792SOL    HW2 6818   3.407   6.129   9.665 -0.0494  0.8609 -0.6359
 1793SOL     OW 6819   1.130   3.940   0.853 -0.1323 -0.3121  0.3139
 1793SOL    HW1 6820   1.138   4.004   0.783  0.5474 -1.3417 -0.5856
 1793SOL    HW2 6821   1.082   3.867   0.814 -1.0584 -0.2974  1.3728
 1794SOL     OW 6822   2.664   0.294   5.459 -0.4694 -0.3108  0.2373
 1794SOL    HW1 6823   2.635   0.385   5.458 -0.6247 -0.3585  0.4859
 1794SOL    HW2 6824   2.585   0.243   5.442 -0.2465 -0.3687 -0.7470
 1795SOL     OW 6825   7.119   4.237   3.331  0.0368 -0.4469 -0.0932
 1795SOL    HW1 6826   7.204   4.240   3.375 -0.6305  0.6644  1.1870
 1795SOL    HW2 6827   7.055   4.240   3.402 -1.1080 -2.5550 -0.9542
 1796SOL     OW 6828   6.381   0.587   7.751  0.0990 -0.7252 -0.0324
 1796SOL    HW1 6829   6.462   0.587   7.801 -0.1546  0.1321  0.4023
 1796SOL    HW2 6830   6.409   0.590   7.659  0.5789  0.8108  0.1327
 1797SOL     OW 6831   7.447   7.786   3.632 -0.1386 -0.3460 -0.3631
 1797SOL    HW1 6832   7.406   7.856   3.581  1.0215 -0.1222 -1.0350
 1797SOL    HW2 6833   7.503   7.832   3.695 -0.9505 -0.6392  0.5809
 1798SOL     OW 6834   3.052   7.757  12.101 -0.7685  0.1333 -0.1813
 1798SOL    HW1 6835   3.040   7.848  12.074 -1.8643  0.4768  1.3364
 1798SOL    HW2 6836   3.132   7.729  12.057 -0.0056  2.0606 -0.1029
 1799SOL     OW 6837   7.625   6.039   3.792  0.2185  0.1049  0.1808
 1799SOL    HW1 6838   7.551   6.068   3.845  0.4337  0.0096  0.5364
 1799SOL    HW2 6839   7.633   5.945   3.813 -0.1635 -0.1077 -0.5836
 1800SOL     OW 6840   3.528   3.691   4.286 -0.1680  0.0116 -0.1335
 1800SOL    HW1 6841   3.493   3.723   4.369 -2.1667  0.5087 -1.1059
 1800SOL    HW2 6842   3.453   3.650   4.242  0.1172  1.9904 -2.7477
 1801SOL     OW 6843   0.409   0.760   1.118  0.4743  0.2654  0.9763
 1801SOL    HW1 6844   0.438   0.726   1.033 -0.0458 -0.7495  1.1928
 1801SOL    HW2 6845   0.461   0.839   1.131  1.9695 -0.6255  0.6077
 1802SOL     OW 6846   0.173   3.985   2.048  0.1889  0.2324  0.1080
 1802SOL    HW1 6847   0.263   3.953   2.043 -0.2331 -1.3058  1.3895
 1802SOL    HW2 6848   0.182   4.079   2.064  1.5001  0.6562 -2.6342
 1803SOL     OW 6849   6.597   3.874   3.065 -0.5596 -0.1780  0.0408
 1803SOL    HW1 6850   6.663   3.937   3.037 -0.7496 -0.4259 -1.0065
 1803SOL    HW2 6851   6.520   3.927   3.087 -0.0717  0.1005  1.1435
 1804SOL     OW 6852   3.250   4.588   6.448 -0.5354  0.1858  0.8481
 1804SOL    HW1 6853   3.324   4.536   6.481 -1.0170 -1.5611 -0.6746
 1804SOL    HW2 6854   3.288   4.640   6.378 -0.8115 -1.2303 -0.4121
 1805SOL     OW 6855   1.484   2.982   8.468 -0.0424  0.0677 -0.0183
 1805SOL    HW1 6856   1.490   2.908   8.528 -3.4811 -0.1548  0.2553
 1805SOL    HW2 6857   1.455   2.943   8.385 -0.5900  0.9432 -0.2530
 1806SOL     OW 6858   2.316   2.506   4.825  0.8160 -0.4588 -0.1805
 1806SOL    HW1 6859   2.346   2.423   4.862  0.4413 -0.2933  0.5069
 1806SOL    HW2 6860   2.392   2.540   4.778  1.6019 -0.2347  1.1953
 1807SOL     OW 6861   2.878   0.290   0.189 -0.6744 -0.2137 -0.5358
 1807SOL    HW1 6862   2.797   0.241   0.202 -0.6144 -0.4084 -0.8969
 1807SOL    HW2 6863   2.898   0.326   0.275 -0.2461 -1.5469 -0.0552
 1808SOL     OW 6864   7.506   4.088   6.291 -0.4242  0.2413 -0.5883
 1808SOL    HW1 6865   7.463   4.103   6.375 -0.4034  0.5204 -0.6275
 1808SOL    HW2 6866   7.513   4.175   6.251 -0.7349  0.0703 -1.0245
 1809SOL     OW 6867   3.722   1.923   0.089 -0.2157 -0.5040  0.5989
 1809SOL    HW1 6868   3.807   1.897   0.126 -0.3531 -1.0916  0.5110
 1809SOL    HW2 6869   3.669   1.844   0.093 -0.5790 -0.2900  0.1308
 1810SOL     OW 6870   4.281   2.884   3.354  0.2188  0.1214 -0.0261
 1810SOL    HW1 6871   4.350   2.913   3.294 -1.5738  0.9685 -1.8230
 1810SOL    HW2 6872   4.249   2.802   3.317 -2.2863  1.6612 -1.5678
 1811SOL     OW 6873   5.160   5.268   8.855 -0.5084 -0.1954 -0.1847
 1811SOL    HW1 6874   5.094   5.332   8.880 -0.2123 -0.1593  0.5277
 1811SOL    HW2 6875   5.155   5.264   8.760  0.0487  1.5198 -0.3233
 1812SOL     OW 6876   2.465   4.561   6.715 -0.0062  0.5951 -0.1026
 1812SOL    HW1 6877   2.371   4.560   6.701  0.0516  0.0103 -0.4769
 1812SOL    HW2 6878   2.485   4.477   6.757  0.3450  0.7048 -0.0444
 1813SOL     OW 6879   1.952   3.631   6.483  0.1086  0.7351  0.3989
 1813SOL    HW1 6880   1.918   3.720   6.492  1.4164  1.6266 -2.2586
 1813SOL    HW2 6881   2.017   3.623   6.553 -1.6882  0.9220  2.1739
 1814SOL     OW 6882   7.041   7.285   2.738 -0.3248  0.6849 -0.5255
 1814SOL    HW1 6883   6.952   7.299   2.772 -0.4886  1.2279 -1.1380
 1814SOL    HW2 6884   7.029   7.218   2.670 -0.2344  0.6312 -0.4878
 1815SOL     OW 6885   1.152   0.867   0.812  0.2626 -0.0626 -0.3063
 1815SOL    HW1 6886   1.105   0.874   0.728 -1.1499 -0.7143  0.3995
 1815SOL    HW2 6887   1.236   0.908   0.795  0.1716 -0.5401 -2.1777
 1816SOL     OW 6888   4.352   3.370   0.553 -0.0227  0.1875 -0.1083
 1816SOL    HW1 6889   4.387   3.453   0.586  0.1942  0.0989 -0.1096
 1816SOL    HW2 6890   4.360   3.376   0.458  1.6695 -0.5364 -0.0558
 1817SOL     OW 6891   2.453   3.617   1.867 -0.2881  0.1638  0.0496
 1817SOL    HW1 6892   2.389   3.552   1.895  0.4752 -0.1585  1.1397
 1817SOL    HW2 6893   2.537   3.571   1.874  0.2725  1.2976  0.9194
 1818SOL     OW 6894   5.391   6.159   3.057  0.2344  0.4290  0.1094
 1818SOL    HW1 6895   5.387   6.254   3.063  0.4254  0.4091  0.6374
 1818SOL    HW2 6896   5.474   6.136   3.098  1.1701  0.1576 -1.8239
 1819SOL     OW 6897   7.677   4.960   1.317 -0.2871  0.2536 -0.9277
 1819SOL    HW1 6898   7.666   4.907   1.396  1.4150  0.1722 -0.7008
 1819SOL    HW2 6899   7.723   5.038   1.348 -0.5282  0.6922 -1.6723
 1820SOL     OW 6900   6.171   0.684   8.536  0.0607  0.4795  0.0732
 1820SOL    HW1 6901   6.191   0.591   8.528  0.7168  0.6598 -0.4318
 1820SOL    HW2 6902   6.255   0.728   8.529 -0.4413  1.2475 -2.2446
 1821SOL     OW 6903   5.065   4.782   3.759  0.3091  0.0028  0.1656
 1821SOL    HW1 6904   5.145   4.776   3.708  0.4063  1.7094  0.0476
 1821SOL    HW2 6905   4.995   4.772   3.695  0.4412  0.6596 -0.0941
 1822SOL     OW 6906   0.008   3.417  11.592 -0.1101 -0.4504  0.0946
 1822SOL    HW1 6907  -0.039   3.340  11.624  2.0015 -1.9876 -0.3034
 1822SOL    HW2 6908   0.001   3.412  11.497  1.4797 -1.1815 -0.0177
 1823SOL     OW 6909   1.084   7.116   3.085 -0.4627  0.1030 -0.0501
 1823SOL    HW1 6910   1.039   7.065   3.017  0.1518 -0.8337  0.2271
 1823SOL    HW2 6911   1.073   7.065   3.165  0.0941  0.4525  0.2567
 1824SOL     OW 6912   2.877   3.719   1.057  0.5979 -0.4407 -0.2805
 1824SOL    HW1 6913   2.878   3.708   1.152  0.7848 -1.0146 -0.3481
 1824SOL    HW2 6914   2.847   3.634   1.024  0.3703 -0.1872 -0.7256
 1825SOL     OW 6915   7.952   4.176   7.874 -0.1437  0.2342  0.0335
 1825SOL    HW1 6916   7.961   4.269   7.898 -0.9291  0.3450 -0.0661
 1825SOL    HW2 6917   7.925   4.133   7.955 -0.4302  0.2049 -0.0762
 1826SOL     OW 6918   1.298   0.440   0.085 -0.2189  0.0400 -0.2508
 1826SOL    HW1 6919   1.237   0.367   0.085 -1.6288  1.0762  2.3971
 1826SOL    HW2 6920   1.243   0.518   0.074  1.1869  0.8271 -2.5520
 1827SOL     OW 6921   0.257   2.321   8.618  0.9216  0.2143 -0.0426
 1827SOL    HW1 6922   0.224   2.356   8.701 -0.7451  0.9401 -0.9575
 1827SOL    HW2 6923   0.190   2.258   8.591  1.6601 -0.3343 -0.6346
 1828SOL     OW 6924   2.929   5.066   1.488 -0.2319  0.1933  0.0800
 1828SOL    HW1 6925   2.837   5.042   1.480 -0.6273  1.9251 -1.2153
 1828SOL    HW2 6926   2.977   4.989   1.459 -1.3671  0.1713 -1.9011
 1829SOL     OW 6927   4.660   6.284   7.143 -0.0171 -0.1577  0.0840
 1829SOL    HW1 6928   4.729   6.219   7.130  1.0172  1.1509 -1.3325
 1829SOL    HW2 6929   4.591   6.258   7.081  0.4083  0.0989 -0.5060
 1830SOL     OW 6930   2.025   1.599   6.336  0.1640 -0.3473 -0.3036
 1830SOL    HW1 6931   2.037   1.630   6.246  0.7817 -1.9713 -0.8185
 1830SOL    HW2 6932   2.052   1.673   6.390  0.3112  0.4714 -1.4513
 1831SOL     OW 6933   2.766   6.689   4.198  0.1118 -0.0013 -0.0963
 1831SOL    HW1 6934   2.791   6.705   4.289  0.9368  1.0698 -0.4944
 1831SOL    HW2 6935   2.828   6.739   4.147 -1.7186  1.2636 -1.1927
 1832SOL     OW 6936   4.391   5.165   7.813  0.0218  0.2325 -0.0976
 1832SOL    HW1 6937   4.389   5.118   7.730  2.0069  1.9874 -1.2243
 1832SOL    HW2 6938   4.474   5.140   7.853 -1.0497 -0.8569  1.6057
 1833SOL     OW 6939   6.348   6.763   7.561  0.5136  0.3806 -0.2521
 1833SOL    HW1 6940   6.380   6.743   7.649  0.5728  2.0971  0.1525
 1833SOL    HW2 6941   6.413   6.824   7.525  1.3958 -1.5541 -2.1772
 1834SOL     OW 6942   2.943   7.479   3.778  0.0579  0.5589  0.1557
 1834SOL    HW1 6943   2.906   7.422   3.846  0.9946  0.1229  0.3128
 1834SOL    HW2 6944   3.018   7.521   3.819  1.5763 -0.8662 -1.0126
 1835SOL     OW 6945   6.899   6.958   2.312  0.0521 -0.0616 -0.6713
 1835SOL    HW1 6946   6.897   6.987   2.403 -0.3267  1.5439 -1.1626
 1835SOL    HW2 6947   6.985   6.986   2.279 -0.2029  0.2643 -1.0737
 1836SOL     OW 6948   5.297   4.923   9.955  0.1798 -0.3424 -0.0282
 1836SOL    HW1 6949   5.307   4.862  10.028  1.5810  0.0718  0.1443
 1836SOL    HW2 6950   5.385   4.954   9.938  0.0306 -1.0781 -2.4740
 1837SOL     OW 6951   6.662   4.357   6.728 -0.4934  0.3991 -0.1364
 1837SOL    HW1 6952   6.709   4.432   6.689  0.9169  0.4609  1.5556
 1837SOL    HW2 6953   6.596   4.334   6.663  0.0283  2.1585 -1.3694
 1838SOL     OW 6954   5.616   4.407   1.930  0.0063  0.2733 -0.3236
 1838SOL    HW1 6955   5.624   4.470   1.858  1.0672  2.1871  1.3678
 1838SOL    HW2 6956   5.704   4.369   1.939 -0.3370 -0.6015 -0.5720
 1839SOL     OW 6957   7.829   6.986   7.463 -0.0527  0.1730  0.0413
 1839SOL    HW1 6958   7.920   7.011   7.448  0.6407 -2.2198 -0.1367
 1839SOL    HW2 6959   7.834   6.908   7.519 -2.0346  0.4446  0.6842
 1840SOL     OW 6960   1.166   5.042   6.507 -0.1634 -0.4060  0.1240
 1840SOL    HW1 6961   1.237   5.093   6.468 -0.4018 -0.7208 -0.7447
 1840SOL    HW2 6962   1.154   4.968   6.448 -1.7897  0.0960 -0.2433
 1841SOL     OW 6963   4.485   6.755   0.368 -0.3897  0.8092 -0.1799
 1841SOL    HW1 6964   4.542   6.689   0.329 -1.4831  0.4621 -1.2681
 1841SOL    HW2 6965   4.446   6.711   0.444 -0.0958  0.6582 -0.1173
 1842SOL     OW 6966   5.098   2.454   3.173 -0.2749 -0.0610 -0.1346
 1842SOL    HW1 6967   5.140   2.534   3.142 -0.2307 -0.0062  0.0628
 1842SOL    HW2 6968   5.054   2.479   3.254  2.4258 -0.8945  1.7637
 1843SOL     OW 6969   7.431   5.555   7.567  0.1099 -0.1041 -0.0487
 1843SOL    HW1 6970   7.380   5.540   7.488  0.9933 -2.2997 -0.2956
 1843SOL    HW2 6971   7.402   5.486   7.627 -0.6347  1.5924  1.6413
 1844SOL     OW 6972   3.794   1.571   3.616  0.1589  0.2594  0.2064
 1844SOL    HW1 6973   3.823   1.590   3.527 -1.2057 -1.3523 -0.6438
 1844SOL    HW2 6974   3.841   1.491   3.641  0.0053  0.3050  0.6558
 1845SOL     OW 6975   2.343   7.461   0.213  0.1231 -0.1109 -0.2770
 1845SOL    HW1 6976   2.259   7.507   0.212  0.1818  0.0056 -0.0758
 1845SOL    HW2 6977   2.335   7.395   0.144 -0.5393 -0.8168  0.4425
 1846SOL     OW 6978   3.981   6.057   2.902 -0.3614 -0.1172  0.2447
 1846SOL    HW1 6979   3.996   6.105   2.820  2.7781 -2.3667 -0.6876
 1846SOL    HW2 6980   3.959   5.969   2.874 -1.5699 -0.3756  1.8943
 1847SOL     OW 6981   5.717   3.947   3.009 -0.3297  0.4461 -0.0388
 1847SOL    HW1 6982   5.719   3.862   3.054 -0.7622 -0.0730 -0.9837
 1847SOL    HW2 6983   5.795   3.947   2.954 -0.4957  0.5319 -0.2736
 1848SOL     OW 6984   2.682   5.847   6.729  0.1744  0.3321  0.0270
 1848SOL    HW1 6985   2.612   5.909   6.753  0.1179 -0.2537  1.4718
 1848SOL    HW2 6986   2.758   5.903   6.712 -0.7755  1.0531 -2.3942
 1849SOL     OW 6987   0.991   7.785   1.480 -0.4989  0.1852 -0.3037
 1849SOL    HW1 6988   1.057   7.775   1.549 -0.8411  0.9409  0.1439
 1849SOL    HW2 6989   1.031   7.845   1.417 -1.3176  1.9213  0.7410
 1850SOL     OW 6990   7.844   2.114   2.435  0.7587  0.0771  0.1990
 1850SOL    HW1 6991   7.767   2.113   2.492  0.4269 -0.8896 -0.2368
 1850SOL    HW2 6992   7.907   2.170   2.480 -0.1747  0.8504  0.5892
 1851SOL     OW 6993   4.197   6.710  10.032  0.7685  0.1065  0.0897
 1851SOL    HW1 6994   4.159   6.648   9.969  0.4590 -0.3558  0.7262
 1851SOL    HW2 6995   4.176   6.673  10.117 -1.2171  2.1082  0.5659
 1852SOL     OW 6996   7.810   4.747  10.958 -0.6575  0.3344  0.1102
 1852SOL    HW1 6997   7.764   4.668  10.986  0.1693 -1.2752 -2.7174
 1852SOL    HW2 6998   7.811   4.802  11.036 -0.8790 -2.5901  2.3695
 1853SOL     OW 6999   0.552   0.024   1.247 -0.1742  0.2114 -0.1361
 1853SOL    HW1 7000   0.588   0.032   1.159  0.7146 -1.1220  0.0793
 1853SOL    HW2 7001   0.503  -0.058   1.245  0.3464 -0.1300  0.7697
 1854SOL     OW 7002   0.478   1.688  10.781  0.1505  0.3943 -0.0460
 1854SOL    HW1 7003   0.509   1.779  10.779  0.8700  0.1981  1.2051
 1854SOL    HW2 7004   0.525   1.648  10.854 -2.4541 -0.1572  1.4409
 1855SOL     OW 7005   4.479   5.234   2.750 -0.0141 -0.5106  0.3424
 1855SOL    HW1 7006   4.390   5.259   2.775 -0.8305 -1.2679 -1.6044
 1855SOL    HW2 7007   4.499   5.157   2.803  0.3022  0.8301  2.2377
 1856SOL     OW 7008   5.211   0.119   3.998 -0.5611  0.2836  0.1079
 1856SOL    HW1 7009   5.245   0.083   4.079  1.3003  0.6856 -0.4487
 1856SOL    HW2 7010   5.204   0.044   3.939  0.6537  0.3724 -0.1754
 1857SOL     OW 7011   0.991   6.784   9.873  0.5529  0.5534  0.5168
 1857SOL    HW1 7012   0.913   6.756   9.921  0.0927  1.9324  0.6043
 1857SOL    HW2 7013   1.040   6.703   9.858 -0.5609 -0.2429  1.0452
 1858SOL     OW 7014   2.522   7.169   9.495  0.5797  0.2477 -0.7844
 1858SOL    HW1 7015   2.533   7.077   9.471  0.7918 -0.1553  0.7050
 1858SOL    HW2 7016   2.570   7.177   9.578  0.4355  1.6666 -0.8195
 1859SOL     OW 7017   5.090   5.807  11.468 -0.1029  0.0786  0.1966
 1859SOL    HW1 7018   5.162   5.844  11.417 -0.5646  0.5550 -0.1156
 1859SOL    HW2 7019   5.063   5.877  11.527 -0.2330 -0.1365  0.3925
 1860SOL     OW 7020   3.819   1.215  12.262 -0.2778 -0.3359  0.4170
 1860SOL    HW1 7021   3.795   1.303  12.289  0.1132  0.0889 -0.5717
 1860SOL    HW2 7022   3.900   1.227  12.212 -0.2559 -1.2445  0.2246
 1861SOL     OW 7023   0.374   0.727   2.294 -0.2659  0.2743  0.3227
 1861SOL    HW1 7024   0.436   0.770   2.235  1.4388 -1.2378  0.8989
 1861SOL    HW2 7025   0.298   0.785   2.296  0.0102  0.8797 -2.5269
 1862SOL     OW 7026   5.596   4.971   1.041  0.1676  0.3155  0.3023
 1862SOL    HW1 7027   5.658   5.044   1.043 -0.0298  0.4766  2.4375
 1862SOL    HW2 7028   5.623   4.913   1.112 -0.5935 -0.9327 -0.3886
 1863SOL     OW 7029   2.394   5.994   2.494  0.9553 -0.0305 -0.5652
 1863SOL    HW1 7030   2.380   6.081   2.457  0.7914  0.3666  0.4147
 1863SOL    HW2 7031   2.449   6.009   2.571  2.4126 -0.9909 -1.3673
 1864SOL     OW 7032   7.234   1.563   5.757 -0.0953  0.3505 -0.6484
 1864SOL    HW1 7033   7.176   1.562   5.682 -1.8417  1.8115  0.5751
 1864SOL    HW2 7034   7.176   1.576   5.832  1.4367 -2.1348  1.1322
 1865SOL     OW 7035   7.687   7.419   6.477 -0.4468 -0.4573  0.2502
 1865SOL    HW1 7036   7.654   7.509   6.476 -0.8184 -0.5730  0.9518
 1865SOL    HW2 7037   7.778   7.426   6.450 -0.2718  0.2300  0.9702
 1866SOL     OW 7038   0.507   3.454   0.177 -0.1381 -0.1708  0.0272
 1866SOL    HW1 7039   0.520   3.367   0.139  1.6573  0.1011 -0.0384
 1866SOL    HW2 7040   0.505   3.513   0.101  0.4466  0.0423  0.1772
 1867SOL     OW 7041   0.207   4.886   6.707 -0.3887  0.1659  0.2212
 1867SOL    HW1 7042   0.202   4.805   6.758  0.5316  0.4296  0.7764
 1867SOL    HW2 7043   0.131   4.885   6.650 -0.5312 -0.9554  0.4251
 1868SOL     OW 7044   4.909   5.155   1.456 -0.5269  0.3589  0.2818
 1868SOL    HW1 7045   4.991   5.205   1.448 -0.4498  0.6884  2.4772
 1868SOL    HW2 7046   4.933   5.066   1.430  0.1837  0.7561 -0.4518
 1869SOL     OW 7047   0.659   2.439  10.669 -0.2787 -0.3473 -0.4325
 1869SOL    HW1 7048   0.573   2.460  10.705 -0.4256 -2.1064  0.3654
 1869SOL    HW2 7049   0.654   2.346  10.649  2.2085 -1.1815  2.0927
 1870SOL     OW 7050   3.481   1.188   6.532 -0.2777 -0.0945  0.3602
 1870SOL    HW1 7051   3.472   1.232   6.617 -0.3846 -0.8287  0.7413
 1870SOL    HW2 7052   3.413   1.121   6.533 -1.1559  0.7283 -0.8679
 1871SOL     OW 7053   0.044   0.198  11.184  0.0331  0.0768  0.5476
 1871SOL    HW1 7054   0.078   0.153  11.261  1.0219 -0.0904  0.0326
 1871SOL    HW2 7055  -0.004   0.273  11.219 -0.6675 -0.7274  1.3702
 1872SOL     OW 7056   3.041   5.794  10.520 -0.1186 -0.2678 -0.4916
 1872SOL    HW1 7057   3.073   5.724  10.463 -1.1058 -1.7491  0.7010
 1872SOL    HW2 7058   3.119   5.844  10.543  0.3707  0.0809 -2.7130
 1873SOL     OW 7059   6.607   7.570   6.132 -0.3044 -0.5494  0.2600
 1873SOL    HW1 7060   6.674   7.564   6.063  1.9038  0.4992  2.1638
 1873SOL    HW2 7061   6.538   7.624   6.093  1.4303  1.0573 -0.7565
 1874SOL     OW 7062   3.414   2.139   3.319 -0.5063  0.0682  0.4916
 1874SOL    HW1 7063   3.325   2.168   3.335 -1.1701 -0.8900 -1.2123
 1874SOL    HW2 7064   3.430   2.072   3.387 -0.7451  0.8278  1.3171
 1875SOL     OW 7065   6.988   7.083  10.683 -0.2719 -0.1326 -0.2669
 1875SOL    HW1 7066   6.919   7.019  10.698 -1.1943  1.0697  0.8036
 1875SOL    HW2 7067   7.069   7.032  10.688 -0.9652 -1.1802  0.7869
 1876SOL     OW 7068   7.562   6.729   6.128 -0.2425  0.0794 -0.2862
 1876SOL    HW1 7069   7.540   6.737   6.221  1.7164 -0.2149  0.2543
 1876SOL    HW2 7070   7.526   6.808   6.088 -1.7329 -0.1213  0.5786
 1877SOL     OW 7071   4.415   2.799   3.923 -0.0699  0.6012  0.4087
 1877SOL    HW1 7072   4.499   2.800   3.876 -0.4699 -1.2971 -0.4708
 1877SOL    HW2 7073   4.431   2.742   3.998 -0.9157 -1.0778 -0.6088
 1878SOL     OW 7074   2.165   1.553   1.873 -0.0736  0.2431  0.1528
 1878SOL    HW1 7075   2.236   1.602   1.913  0.7122  0.8705 -1.9022
 1878SOL    HW2 7076   2.091   1.613   1.872 -0.6763 -0.3794  2.2066
 1879SOL     OW 7077   0.024   4.186   5.179  0.6622  0.5363  0.2328
 1879SOL    HW1 7078   0.092   4.221   5.121  0.5433  0.3685 -0.0090
 1879SOL    HW2 7079  -0.027   4.262   5.205  0.5531  0.5782 -0.0948
 1880SOL     OW 7080   7.419   5.375   6.895  0.4484 -0.0718  0.7111
 1880SOL    HW1 7081   7.400   5.429   6.971  0.3023  1.5353 -0.4205
 1880SOL    HW2 7082   7.334   5.341   6.867  0.3034  0.5283  0.4141
 1881SOL     OW 7083   1.717   0.819  10.370  0.2626 -0.6934 -0.2005
 1881SOL    HW1 7084   1.702   0.914  10.374  1.5361 -0.4426 -0.7928
 1881SOL    HW2 7085   1.680   0.793  10.286  0.2411 -0.6600 -0.2010
 1882SOL     OW 7086   2.867   0.236   5.832 -0.1109  0.0106 -0.7482
 1882SOL    HW1 7087   2.817   0.316   5.851  0.5505  0.0599  0.9654
 1882SOL    HW2 7088   2.803   0.166   5.840  0.0676  0.0340  1.8580
 1883SOL     OW 7089   6.414   5.401   1.872 -0.2045  0.1849  0.2614
 1883SOL    HW1 7090   6.331   5.440   1.899 -0.6469  0.0036 -0.7997
 1883SOL    HW2 7091   6.443   5.352   1.950 -0.6729  0.9138  0.9112
 1884SOL     OW 7092   5.317   1.821   2.148 -0.6432  0.3579  0.3423
 1884SOL    HW1 7093   5.232   1.778   2.142 -0.6681  0.3554  0.6829
 1884SOL    HW2 7094   5.332   1.831   2.242  0.4146 -0.9804  0.3358
 1885SOL     OW 7095   7.363   4.340   7.790  0.2349 -0.0793  0.0268
 1885SOL    HW1 7096   7.397   4.428   7.807 -1.2467  0.5095  0.1464
 1885SOL    HW2 7097   7.440   4.283   7.792  1.0446  1.0022  1.3920
 1886SOL     OW 7098   2.055   0.287   5.490 -0.4088 -0.0651  0.1356
 1886SOL    HW1 7099   2.142   0.306   5.454 -0.5518 -0.7659 -0.6028
 1886SOL    HW2 7100   2.049   0.343   5.567  1.5365 -1.4418  1.4046
 1887SOL     OW 7101   0.813   4.043   8.110  0.2099  0.1062 -0.4566
 1887SOL    HW1 7102   0.904   4.060   8.136  0.0949 -0.0082  0.0335
 1887SOL    HW2 7103   0.819   4.002   8.024  0.5413  1.8828 -1.3265
 1888SOL     OW 7104   3.453   1.644   7.546  0.1375  0.2560  0.6019
 1888SOL    HW1 7105   3.383   1.709   7.547 -0.4878 -0.3969  0.0243
 1888SOL    HW2 7106   3.516   1.676   7.610 -1.3454  0.1122  2.1939
 1889SOL     OW 7107   0.154   6.097  11.630  0.2879  0.0621  1.1267
 1889SOL    HW1 7108   0.122   6.067  11.715 -0.7610  0.1850  0.7836
 1889SOL    HW2 7109   0.089   6.161  11.601  0.1309 -0.6682 -0.1976
 1890SOL     OW 7110   3.361   0.354   0.038  0.6130 -0.0635 -0.9022
 1890SOL    HW1 7111   3.280   0.303   0.038  1.2698 -1.1454 -0.0993
 1890SOL    HW2 7112   3.337   0.437   0.079  0.1577 -0.8488  0.5004
 1891SOL     OW 7113   0.869   2.183   9.236  0.5869  0.1929 -0.1923
 1891SOL    HW1 7114   0.779   2.204   9.259  1.3049  0.8617  2.3769
 1891SOL    HW2 7115   0.873   2.192   9.141 -1.7460  1.2757 -0.2484
 1892SOL     OW 7116   2.524   7.206   1.123  0.4560 -0.3653 -0.3827
 1892SOL    HW1 7117   2.579   7.232   1.049 -0.8527 -0.1845 -1.3221
 1892SOL    HW2 7118   2.440   7.183   1.084 -0.2483 -0.3558  1.0496
 1893SOL     OW 7119   6.281   6.420   5.558 -0.0782 -0.1568  0.2722
 1893SOL    HW1 7120   6.246   6.331   5.562  0.1742 -0.2454  0.5648
 1893SOL    HW2 7121   6.373   6.411   5.583 -0.3677  0.3621  1.6250
 1894SOL     OW 7122   1.255   5.135   0.966  0.2095 -0.1411  0.2439
 1894SOL    HW1 7123   1.199   5.103   1.036 -0.4825  0.0152 -0.2263
 1894SOL    HW2 7124   1.195   5.155   0.894  0.5374  2.5486  0.6222
 1895SOL     OW 7125   0.431   2.072   5.784  0.5970 -0.4235  0.1480
 1895SOL    HW1 7126   0.475   2.144   5.829  0.4478 -0.5829  0.5545
 1895SOL    HW2 7127   0.498   2.035   5.727  0.1514  1.2829 -1.5880
 1896SOL     OW 7128   3.420   7.527   0.925  0.4064 -0.2041  0.0024
 1896SOL    HW1 7129   3.357   7.587   0.885  1.2105  0.4715 -0.2779
 1896SOL    HW2 7130   3.377   7.441   0.922  0.4223 -0.1993 -2.3140
 1897SOL     OW 7131   3.726   3.940   1.252  0.3099  0.5540  0.3483
 1897SOL    HW1 7132   3.812   3.936   1.295  0.7300  1.9595 -0.3173
 1897SOL    HW2 7133   3.745   3.962   1.161 -0.7037 -0.3796 -0.1203
 1898SOL     OW 7134   1.050   0.023   0.144 -0.0301  0.0439  0.3350
 1898SOL    HW1 7135   1.027  -0.047   0.205  0.7110  1.1702  1.9908
 1898SOL    HW2 7136   1.085  -0.022   0.068  3.3111 -1.4373  2.5098
 1899SOL     OW 7137   7.538   4.354   1.234 -1.4330  0.2733  0.6516
 1899SOL    HW1 7138   7.552   4.410   1.157  1.1417  0.0401  0.8569
 1899SOL    HW2 7139   7.523   4.267   1.197  0.5753  0.0081  0.3466
 1900SOL     OW 7140   0.709   6.245   7.445  0.1122 -0.3175 -0.8538
 1900SOL    HW1 7141   0.795   6.204   7.443  0.5329  0.1938  1.9402
 1900SOL    HW2 7142   0.719   6.318   7.506 -2.4131 -0.5602 -0.0352
 1901SOL     OW 7143   4.237   2.943  10.456  0.3276 -0.0610 -0.1977
 1901SOL    HW1 7144   4.222   2.853  10.427  0.3712  0.0265 -0.4941
 1901SOL    HW2 7145   4.160   2.965  10.508  0.2104 -0.1916 -0.3157
 1902SOL     OW 7146   4.449   0.931   5.282  0.1606  0.1360  0.4785
 1902SOL    HW1 7147   4.382   0.864   5.269  0.3130 -0.0779  0.7729
 1902SOL    HW2 7148   4.501   0.898   5.355  1.0204 -0.0390 -0.2106
 1903SOL     OW 7149   6.180   0.629   3.008  0.4337  0.0044 -0.4356
 1903SOL    HW1 7150   6.247   0.649   2.942  1.0659 -0.1733  0.1451
 1903SOL    HW2 7151   6.229   0.617   3.089 -0.2746 -0.5162 -0.0793
 1904SOL     OW 7152   0.714   3.855  10.134 -0.2156 -0.1042 -0.0398
 1904SOL    HW1 7153   0.635   3.856  10.080 -0.4360 -0.4500  0.2726
 1904SOL    HW2 7154   0.697   3.920  10.202 -0.0051  0.2103 -0.2778
 1905SOL     OW 7155   5.299   5.982   2.183 -0.3878 -0.0381 -0.8359
 1905SOL    HW1 7156   5.232   5.977   2.252  0.1706  0.0225 -0.2784
 1905SOL    HW2 7157   5.271   5.919   2.117  0.1230 -1.5693  0.3739
 1906SOL     OW 7158   1.322   1.386   7.721 -0.1883  0.5992 -0.0267
 1906SOL    HW1 7159   1.357   1.473   7.702 -0.6971  0.8304  0.0680
 1906SOL    HW2 7160   1.398   1.328   7.719  0.0602  0.9315 -0.8022
 1907SOL     OW 7161   0.843   3.070   7.539 -0.1226  0.4836 -0.1303
 1907SOL    HW1 7162   0.821   3.018   7.461 -3.1809  0.1857  0.8416
 1907SOL    HW2 7163   0.826   3.160   7.513  2.4311  0.8522 -0.8788
 1908SOL     OW 7164   2.947   5.080   5.024 -0.1299  0.4644 -0.8344
 1908SOL    HW1 7165   3.001   5.070   5.102 -0.4471 -0.7508 -0.7447
 1908SOL    HW2 7166   2.902   5.164   5.036 -0.5724  0.0555  0.5387
 1909SOL     OW 7167   7.541   3.547  10.378 -0.7444  0.3392  0.1618
 1909SOL    HW1 7168   7.534   3.620  10.439  1.3928  1.4221 -0.7760
 1909SOL    HW2 7169   7.482   3.570  10.306 -1.5483  0.1704  0.7579
 1910SOL     OW 7170   6.382   1.235   8.917 -0.4281 -0.0674 -0.0973
 1910SOL    HW1 7171   6.469   1.203   8.891 -0.6615 -0.4452 -0.4182
 1910SOL    HW2 7172   6.322   1.192   8.857 -0.9423 -0.6324  0.7906
 1911SOL     OW 7173   0.670   1.429   8.561 -0.4911 -0.1420 -0.2610
 1911SOL    HW1 7174   0.679   1.515   8.603 -1.0863 -0.1277 -0.1514
 1911SOL    HW2 7175   0.747   1.380   8.591 -1.1524 -0.3051  1.2855
 1912SOL     OW 7176   1.443   4.461   6.232  0.4310 -0.3267 -0.0268
 1912SOL    HW1 7177   1.389   4.460   6.153  0.8592  0.8312 -0.3486
 1912SOL    HW2 7178   1.403   4.527   6.288 -0.5471 -1.9250  1.2452
 1913SOL     OW 7179   1.617   5.208  11.426 -0.0311 -0.2368 -0.2678
 1913SOL    HW1 7180   1.611   5.231  11.519 -1.1007 -0.2684 -0.3159
 1913SOL    HW2 7181   1.651   5.119  11.426 -1.1294 -0.6718  0.1535
 1914SOL     OW 7182   2.517   5.622   5.985 -0.8222  0.0747  0.4837
 1914SOL    HW1 7183   2.572   5.548   5.958 -0.1219  0.2573  1.3982
 1914SOL    HW2 7184   2.489   5.661   5.902 -0.1162 -0.4119 -0.0026
 1915SOL     OW 7185   3.773   0.981  10.091  0.0520 -0.2406  0.7496
 1915SOL    HW1 7186   3.721   0.967  10.011  2.7077  0.7157 -1.3087
 1915SOL    HW2 7187   3.708   1.004  10.158 -2.1789  0.8825 -1.6049
 1916SOL     OW 7188   3.970   6.636   6.523  0.2117 -0.3489  0.0073
 1916SOL    HW1 7189   3.949   6.679   6.441  0.3108  1.0794  0.6982
 1916SOL    HW2 7190   4.018   6.557   6.498  0.7249  0.3511 -1.2719
 1917SOL     OW 7191   4.707   3.132   7.456  0.1792 -0.2329 -0.3256
 1917SOL    HW1 7192   4.762   3.094   7.387  0.7010 -0.8102  0.3859
 1917SOL    HW2 7193   4.623   3.149   7.414  0.3358 -1.0349 -0.9806
 1918SOL     OW 7194   2.906   5.236   5.988 -0.2671 -0.1845 -0.3764
 1918SOL    HW1 7195   2.906   5.141   5.998  2.8838 -0.3668 -0.9265
 1918SOL    HW2 7196   2.930   5.270   6.075 -0.6477  0.0562 -0.3635
 1919SOL     OW 7197   3.305   6.572   0.344 -0.0638 -0.7889  0.1495
 1919SOL    HW1 7198   3.287   6.501   0.405 -1.0267 -0.2951  0.4507
 1919SOL    HW2 7199   3.329   6.528   0.262 -0.5094 -1.4594  0.3727
 1920SOL     OW 7200   1.377   6.556   1.408 -0.0170  0.0846  0.2243
 1920SOL    HW1 7201   1.316   6.616   1.364 -3.0640 -1.1663  2.3934
 1920SOL    HW2 7202   1.445   6.539   1.343 -0.5829  3.5070 -1.4978
 1921SOL     OW 7203   1.790   5.211  10.275 -0.0913 -0.1560 -0.5077
 1921SOL    HW1 7204   1.695   5.198  10.277 -0.0947 -0.0844  0.9205
 1921SOL    HW2 7205   1.821   5.175  10.359  0.9356  1.1959 -0.2709
 1922SOL     OW 7206   4.904   0.424   8.344  0.5866 -0.0744  0.7981
 1922SOL    HW1 7207   4.916   0.334   8.314  2.3203 -0.2786  1.9405
 1922SOL    HW2 7208   4.935   0.423   8.435  1.5322  1.8534  0.5567
 1923SOL     OW 7209   6.820   4.677   3.732 -0.7360 -0.6853 -0.5466
 1923SOL    HW1 7210   6.814   4.757   3.784 -1.0485 -0.0772 -1.4991
 1923SOL    HW2 7211   6.913   4.668   3.713 -0.6196 -0.9024  0.0798
 1924SOL     OW 7212   4.601   2.770  10.659 -0.3455  0.3287 -0.5320
 1924SOL    HW1 7213   4.566   2.858  10.646  1.5482  1.2476  0.1329
 1924SOL    HW2 7214   4.587   2.752  10.752  1.5072  1.0309 -0.0732
 1925SOL     OW 7215   4.766   7.834   7.780  0.2346  0.3916  0.1754
 1925SOL    HW1 7216   4.718   7.915   7.763  1.3075  1.4255  1.8699
 1925SOL    HW2 7217   4.854   7.850   7.746  0.5439  0.0641  0.7985
 1926SOL     OW 7218   0.599   5.086   4.277  0.1882  0.3177 -0.1907
 1926SOL    HW1 7219   0.613   5.077   4.372 -1.2386 -0.0693 -0.0025
 1926SOL    HW2 7220   0.632   5.004   4.240  0.8243  0.5033 -0.0477
 1927SOL     OW 7221   7.850   3.246  10.901  0.2224 -0.1408 -0.3428
 1927SOL    HW1 7222   7.816   3.288  10.980 -1.9674 -0.3408 -1.1336
 1927SOL    HW2 7223   7.824   3.304  10.829 -0.0738 -1.2408 -1.1453
 1928SOL     OW 7224   5.058   6.547   1.580 -0.4176 -0.3599  0.1456
 1928SOL    HW1 7225   5.131   6.492   1.607 -0.0728  1.0715  2.3960
 1928SOL    HW2 7226   4.980   6.495   1.599 -0.0732 -0.4198  1.4925
 1929SOL     OW 7227   0.851   5.531   1.352  0.5015 -0.2437 -0.2028
 1929SOL    HW1 7228   0.808   5.447   1.368  0.9467 -0.6179 -0.9401
 1929SOL    HW2 7229   0.931   5.527   1.406  1.1854 -0.8450 -1.2267
 1930SOL     OW 7230   6.037   2.926   6.559 -0.2019  0.3430 -0.8407
 1930SOL    HW1 7231   6.094   2.970   6.497 -1.7578  0.6980 -2.0834
 1930SOL    HW2 7232   5.949   2.932   6.520 -1.1603  0.1270  1.1404
 1931SOL     OW 7233   5.722   7.023   7.593  0.0929 -0.1343 -0.3263
 1931SOL    HW1 7234   5.627   7.020   7.592  0.0397  1.0889 -0.4790
 1931SOL    HW2 7235   5.746   7.019   7.685 -0.0762 -0.9567 -0.3138
 1932SOL     OW 7236   4.295   3.648   4.808 -0.6247 -0.2302 -1.0550
 1932SOL    HW1 7237   4.238   3.578   4.842 -0.5462 -0.9035 -2.2585
 1932SOL    HW2 7238   4.255   3.728   4.841 -1.0063 -0.8069 -0.0533
 1933SOL     OW 7239   1.560   3.671   2.588 -0.1859 -0.2715 -0.6718
 1933SOL    HW1 7240   1.488   3.697   2.532 -1.4741 -2.6392 -0.2499
 1933SOL    HW2 7241   1.520   3.654   2.673  0.6481 -2.5715 -0.6718
 1934SOL     OW 7242   7.135   3.874   7.456 -0.2585 -0.1435  0.2183
 1934SOL    HW1 7243   7.067   3.901   7.395 -1.1344  0.6143  1.4900
 1934SOL    HW2 7244   7.108   3.786   7.484 -0.8764  0.2587  0.9167
 1935SOL     OW 7245   0.114   4.482   6.283  0.2916 -0.7051 -0.3018
 1935SOL    HW1 7246   0.199   4.526   6.277  1.2751 -2.1198  1.8582
 1935SOL    HW2 7247   0.066   4.532   6.349 -0.0715 -0.6401 -0.6150
 1936SOL     OW 7248   6.560   1.634   0.742 -0.0691 -0.6173  0.5044
 1936SOL    HW1 7249   6.570   1.714   0.794 -0.4482  0.0041 -0.3702
 1936SOL    HW2 7250   6.483   1.649   0.688  0.5007 -1.1202 -0.4757
 1937SOL     OW 7251   7.612   0.325   7.007 -0.4216 -0.3516  0.6569
 1937SOL    HW1 7252   7.587   0.236   7.034 -0.8822 -0.4360 -0.0191
 1937SOL    HW2 7253   7.629   0.318   6.913  0.9905 -0.0271  0.8642
 1938SOL     OW 7254   0.664   7.889  11.621 -0.3667  0.1024  0.4352
 1938SOL    HW1 7255   0.643   7.801  11.651  1.3491 -0.3778  0.3768
 1938SOL    HW2 7256   0.617   7.947  11.681  0.5133 -0.8518  2.1369
 1939SOL     OW 7257   5.945   3.386   1.368 -0.0029 -0.3992 -0.1427
 1939SOL    HW1 7258   5.954   3.479   1.350  1.0426 -0.7281 -1.4929
 1939SOL    HW2 7259   5.881   3.355   1.305 -1.0963 -0.4441  0.9537
 1940SOL     OW 7260   4.518   4.912  11.009 -0.0866 -0.1872 -0.3075
 1940SOL    HW1 7261   4.559   4.848  11.066 -2.2180 -1.9680 -0.6223
 1940SOL    HW2 7262   4.591   4.954  10.963  1.4931 -0.8513  1.4835
 1941SOL     OW 7263   0.094   6.102   9.194 -0.2220  0.8346 -0.1283
 1941SOL    HW1 7264   0.111   6.086   9.287 -1.6821  0.7498  0.1484
 1941SOL    HW2 7265  -0.001   6.100   9.186 -0.1067 -0.4731 -1.8553
 1942SOL     OW 7266   3.692   6.064   3.785 -0.2758  0.3042  0.5174
 1942SOL    HW1 7267   3.766   6.075   3.724  0.3323 -0.1875  1.1576
 1942SOL    HW2 7268   3.626   6.016   3.734 -0.0731  0.5492  0.0146
 1943SOL     OW 7269   4.566   3.217   0.737  0.1764  0.6517  0.1974
 1943SOL    HW1 7270   4.602   3.304   0.754  0.1802  0.3749  1.7525
 1943SOL    HW2 7271   4.487   3.233   0.686 -0.5461  1.6773  1.5769
 1944SOL     OW 7272   2.046   4.563   9.391 -0.4216  0.4049  0.3660
 1944SOL    HW1 7273   1.953   4.542   9.395 -1.3792  3.9812  0.2687
 1944SOL    HW2 7274   2.064   4.575   9.297  0.1442 -0.1994  0.3885
 1945SOL     OW 7275   4.348   1.136   8.178  0.0196  0.2903  0.2640
 1945SOL    HW1 7276   4.371   1.092   8.260  1.2379  0.8543  0.2410
 1945SOL    HW2 7277   4.262   1.175   8.194  0.2895  0.4680  1.3102
 1946SOL     OW 7278   0.927   7.079  10.125  0.4691  0.3651 -0.3872
 1946SOL    HW1 7279   0.977   7.152  10.160  0.4699  0.1974 -0.0323
 1946SOL    HW2 7280   0.985   7.039  10.061  1.1980 -0.4280  0.7286
 1947SOL     OW 7281   4.645   7.782  10.150  0.0130 -0.2737  0.3084
 1947SOL    HW1 7282   4.649   7.790  10.245  1.4608  0.6147  0.1907
 1947SOL    HW2 7283   4.722   7.828  10.118  0.0252 -1.3085 -1.2671
 1948SOL     OW 7284   5.843   1.695   4.937  0.4550 -0.0589 -0.9063
 1948SOL    HW1 7285   5.937   1.690   4.918  0.2390 -0.5706 -1.9135
 1948SOL    HW2 7286   5.801   1.654   4.861 -0.6027  0.5286 -0.6557
 1949SOL     OW 7287   6.181   5.856   7.568  0.2987 -0.0092 -0.1351
 1949SOL    HW1 7288   6.238   5.933   7.575  2.8158 -1.8464  1.0183
 1949SOL    HW2 7289   6.205   5.801   7.642  0.3347 -3.0106 -2.1859
 1950SOL     OW 7290   7.273   7.434   8.570  0.5051 -0.2363  0.2174
 1950SOL    HW1 7291   7.223   7.514   8.581  3.1938  1.5379  0.5942
 1950SOL    HW2 7292   7.318   7.421   8.653  0.6387 -1.7818 -0.0604
 1951SOL     OW 7293   0.490   6.621   2.176  0.0113 -0.1345  0.1556
 1951SOL    HW1 7294   0.472   6.707   2.137  0.3165  0.2465  0.8376
 1951SOL    HW2 7295   0.509   6.564   2.101 -1.3338  0.1002 -0.3910
 1952SOL     OW 7296   4.653   0.402  11.671 -0.1271 -0.2261  0.4594
 1952SOL    HW1 7297   4.676   0.383  11.762 -1.7458 -4.4677  0.2429
 1952SOL    HW2 7298   4.728   0.372  11.620 -0.4583 -0.8379  0.3165
 1953SOL     OW 7299   3.024   0.101  10.535  0.4047 -0.4094 -0.4060
 1953SOL    HW1 7300   3.038   0.019  10.582  1.2269  2.4984  5.3617
 1953SOL    HW2 7301   3.112   0.129  10.509  0.5154  0.0078  0.4015
 1954SOL     OW 7302   0.714   6.419   7.811  0.0824 -0.1107  0.7882
 1954SOL    HW1 7303   0.667   6.472   7.876 -2.3244 -2.1482  0.8431
 1954SOL    HW2 7304   0.666   6.336   7.808  0.9716 -0.6472 -2.5487
 1955SOL     OW 7305   3.584   6.572   0.466  0.2656  0.2483 -0.1331
 1955SOL    HW1 7306   3.571   6.667   0.473 -1.3121  0.0714 -0.1309
 1955SOL    HW2 7307   3.528   6.546   0.393  2.7594 -0.3511 -1.9365
 1956SOL     OW 7308   5.086   4.056   6.526 -0.8652  0.8705  0.4055
 1956SOL    HW1 7309   5.005   4.008   6.514 -0.5333 -0.1567  1.9493
 1956SOL    HW2 7310   5.135   4.042   6.446 -1.0237 -0.9306  0.5886
 1957SOL     OW 7311   0.486   7.279  11.905  0.2837 -0.0465  0.3290
 1957SOL    HW1 7312   0.425   7.292  11.978 -0.8052  0.4565 -0.6513
 1957SOL    HW2 7313   0.431   7.266  11.829  1.4095 -0.2120 -0.4872
 1958SOL     OW 7314   0.949   5.877   6.546 -0.1981 -0.0600  0.4579
 1958SOL    HW1 7315   0.989   5.961   6.526  0.7026 -0.8368 -1.2547
 1958SOL    HW2 7316   0.860   5.883   6.509  0.5638 -0.5396 -1.5933
 1959SOL     OW 7317   5.019   1.016   4.610 -0.4170 -0.2350 -0.2171
 1959SOL    HW1 7318   4.948   1.076   4.634 -0.6690 -0.5686 -0.1311
 1959SOL    HW2 7319   5.038   1.039   4.519  0.0033  0.4897  0.0415
 1960SOL     OW 7320   0.477   0.740  10.341  0.6566 -0.1545 -0.5897
 1960SOL    HW1 7321   0.457   0.830  10.367  0.3312  0.0807 -1.6168
 1960SOL    HW2 7322   0.398   0.691  10.364  0.6300 -0.0795 -0.5180
 1961SOL     OW 7323   0.719   3.785   1.518 -0.1289 -0.2294 -0.1420
 1961SOL    HW1 7324   0.719   3.705   1.570 -1.0354  1.0920  2.0662
 1961SOL    HW2 7325   0.796   3.833   1.548 -0.1112  0.1429 -0.7609
 1962SOL     OW 7326   2.610   7.263   8.507  0.4080 -0.2660  0.4531
 1962SOL    HW1 7327   2.584   7.341   8.556 -1.1663 -0.4782  0.0360
 1962SOL    HW2 7328   2.634   7.199   8.575 -1.3179 -0.4157  0.9782
 1963SOL     OW 7329   1.410   6.509   7.740  0.3423  0.6110 -0.5688
 1963SOL    HW1 7330   1.355   6.543   7.810 -0.9133 -0.9570 -0.7239
 1963SOL    HW2 7331   1.352   6.451   7.690  2.5428 -2.7386  0.4142
 1964SOL     OW 7332   6.353   7.144   4.649  0.7805 -0.2730 -0.5883
 1964SOL    HW1 7333   6.376   7.055   4.676 -1.7707 -0.5026  1.0880
 1964SOL    HW2 7334   6.349   7.194   4.731 -0.1812  0.7832 -1.2544
 1965SOL     OW 7335   2.193   3.083   3.675  0.7361  0.0708  0.5558
 1965SOL    HW1 7336   2.146   3.063   3.755 -1.2213  0.7417 -0.3559
 1965SOL    HW2 7337   2.138   3.149   3.631  1.7554 -0.2509 -1.3054
 1966SOL     OW 7338   5.782   3.852   4.846  0.1678 -0.3403  0.1125
 1966SOL    HW1 7339   5.707   3.876   4.901 -0.5391 -1.0067 -0.5439
 1966SOL    HW2 7340   5.840   3.928   4.851 -1.6068  1.1764 -1.2162
 1967SOL     OW 7341   1.815   3.023   8.017  0.7548  0.7265 -0.1535
 1967SOL    HW1 7342   1.882   3.060   8.074  1.2614  0.5697 -0.6430
 1967SOL    HW2 7343   1.858   2.950   7.973  0.0389  0.1301  0.0971
 1968SOL     OW 7344   2.698   3.555   2.090  0.3261  0.1543  0.0142
 1968SOL    HW1 7345   2.767   3.607   2.050  0.1203  0.7396  0.4095
 1968SOL    HW2 7346   2.662   3.611   2.159  0.1205 -0.5236  0.4661
 1969SOL     OW 7347   4.351   5.639   6.935 -0.5232 -0.2411 -0.1420
 1969SOL    HW1 7348   4.375   5.663   7.025  0.9158 -0.5636 -0.4195
 1969SOL    HW2 7349   4.310   5.718   6.900 -0.5125  0.1012  0.5887
 1970SOL     OW 7350   5.515   5.048   2.799  0.7118 -0.1781  0.3856
 1970SOL    HW1 7351   5.447   5.012   2.743 -0.7260 -2.0985  3.1386
 1970SOL    HW2 7352   5.587   4.986   2.793  0.1483 -0.9577  1.3827
 1971SOL     OW 7353   1.739   6.915  10.197  0.8648  0.0048 -0.3161
 1971SOL    HW1 7354   1.820   6.956  10.168  0.6829  1.2095  0.8099
 1971SOL    HW2 7355   1.670   6.966  10.155  0.6317  0.9620  1.1943
 1972SOL     OW 7356   6.033   0.932   9.223  0.7997  0.7627  0.5789
 1972SOL    HW1 7357   5.983   0.851   9.216  0.8300  0.7273  0.7791
 1972SOL    HW2 7358   6.017   0.977   9.140  0.5615  0.6800  0.5801
 1973SOL     OW 7359   3.738   0.718  11.889  0.1424 -0.4279  0.1613
 1973SOL    HW1 7360   3.693   0.638  11.863  0.0938 -0.0696 -0.9078
 1973SOL    HW2 7361   3.712   0.731  11.980 -1.7383 -0.3751 -0.3275
 1974SOL     OW 7362   5.026   1.211   0.075  0.0092  0.3343 -0.3151
 1974SOL    HW1 7363   4.945   1.249   0.110  0.9939  2.3817 -0.1485
 1974SOL    HW2 7364   5.035   1.249  -0.012 -0.4618 -1.8312 -1.3744
 1975SOL     OW 7365   1.183   2.408  12.183 -0.7570  0.1781 -0.5616
 1975SOL    HW1 7366   1.217   2.403  12.093 -1.4770  0.3347 -0.8544
 1975SOL    HW2 7367   1.088   2.415  12.171 -0.8534  0.1998  0.2175
 1976SOL     OW 7368   3.942   5.744   0.886  0.1515  0.3996  0.3771
 1976SOL    HW1 7369   3.957   5.775   0.797  0.2432  0.6989  0.4928
 1976SOL    HW2 7370   3.933   5.649   0.878  2.2717  0.1551  0.3273
 1977SOL     OW 7371   2.867   5.090   1.077  0.2212  0.2263 -0.1717
 1977SOL    HW1 7372   2.826   5.068   0.994  0.1736 -0.0931 -0.0621
 1977SOL    HW2 7373   2.853   5.014   1.133 -0.9114  0.9370  0.5693
 1978SOL     OW 7374   4.223   7.630   0.014  0.0172 -0.1426 -0.1459
 1978SOL    HW1 7375   4.214   7.668   0.101 -2.5396 -1.0509  0.0769
 1978SOL    HW2 7376   4.236   7.705  -0.044 -0.9306  0.7225  0.7253
 1979SOL     OW 7377   1.111   6.696   3.564  0.2953  0.1427  0.0262
 1979SOL    HW1 7378   1.160   6.774   3.538  1.1665  0.3132  2.0110
 1979SOL    HW2 7379   1.040   6.730   3.619 -0.9554 -0.2743 -1.2736
 1980SOL     OW 7380   2.173   2.637   0.653 -0.3171  0.3168  0.3758
 1980SOL    HW1 7381   2.116   2.711   0.634 -0.3684  0.0906 -0.3692
 1980SOL    HW2 7382   2.165   2.580   0.577 -0.6673 -0.7084  1.1506
 1981SOL     OW 7383   5.004   5.548   7.944 -0.3604  0.0122 -0.6972
 1981SOL    HW1 7384   5.012   5.609   8.017  0.3788 -1.0544  0.1416
 1981SOL    HW2 7385   4.997   5.604   7.867 -0.5427  1.1556  0.1232
 1982SOL     OW 7386   6.415   0.600   7.465 -0.2803  0.3695  0.2778
 1982SOL    HW1 7387   6.481   0.664   7.491 -0.6440  0.1230  1.8529
 1982SOL    HW2 7388   6.439   0.577   7.375  0.5818  1.7770  0.1077
 1983SOL     OW 7389   4.062   2.713  10.421 -0.0265 -0.1445  0.1996
 1983SOL    HW1 7390   3.998   2.779  10.450 -1.6798 -0.0556 -3.1255
 1983SOL    HW2 7391   4.092   2.745  10.336 -0.9586 -3.5685 -1.6270
 1984SOL     OW 7392   1.394   1.678   0.942 -0.5630  0.3996 -0.1836
 1984SOL    HW1 7393   1.391   1.700   1.035 -0.2789 -0.4428  0.0313
 1984SOL    HW2 7394   1.337   1.743   0.900 -0.9079  0.6163  0.6092
 1985SOL     OW 7395   0.945   2.939   4.707  0.1085  0.4789 -0.4426
 1985SOL    HW1 7396   0.874   2.881   4.681  0.8752 -0.4508 -0.5063
 1985SOL    HW2 7397   0.979   2.901   4.788  1.4766  0.0525 -1.1848
 1986SOL     OW 7398   0.910   5.790   5.612  0.3144  0.0497  0.0034
 1986SOL    HW1 7399   0.997   5.831   5.609  0.1939  0.3072 -2.7089
 1986SOL    HW2 7400   0.874   5.804   5.524 -1.8037 -1.5379  0.5348
 1987SOL     OW 7401   6.592   3.476   0.924  0.0884 -0.8008 -0.1220
 1987SOL    HW1 7402   6.517   3.437   0.879  1.1308 -1.8312 -1.0098
 1987SOL    HW2 7403   6.558   3.500   1.010 -1.4199 -0.6442 -0.7361
 1988SOL     OW 7404   4.879   7.263  11.175 -0.0927  0.6101 -0.6829
 1988SOL    HW1 7405   4.935   7.242  11.100  0.9526 -2.5952  0.7946
 1988SOL    HW2 7406   4.858   7.178  11.214  0.1224  2.0669  3.1073
 1989SOL     OW 7407   6.351   1.582   7.151  0.1383  0.1426 -0.2469
 1989SOL    HW1 7408   6.281   1.645   7.170  0.0761 -0.2493  0.9121
 1989SOL    HW2 7409   6.374   1.546   7.236  2.5278  1.0545 -0.4550
 1990SOL     OW 7410   4.948   5.935   4.842  0.1954 -0.2500 -0.1702
 1990SOL    HW1 7411   4.944   6.022   4.801  1.2836 -1.0594 -2.1579
 1990SOL    HW2 7412   4.885   5.883   4.792  0.6054 -0.9656  0.0464
 1991SOL     OW 7413   4.133   1.190  11.367  0.4680  0.0595  0.1532
 1991SOL    HW1 7414   4.102   1.126  11.432 -0.2101 -0.3761 -0.5852
 1991SOL    HW2 7415   4.160   1.137  11.293  2.2721  0.4864  0.4663
 1992SOL     OW 7416   1.171   7.751   4.913  0.2863  0.0477 -0.4798
 1992SOL    HW1 7417   1.160   7.832   4.964 -2.6753 -0.1791 -0.5936
 1992SOL    HW2 7418   1.099   7.754   4.849 -0.8090 -3.2911  0.4187
 1993SOL     OW 7419   0.261   0.064   5.467  0.0558  0.3795 -0.2384
 1993SOL    HW1 7420   0.236   0.142   5.517  3.3614  1.8660 -0.6359
 1993SOL    HW2 7421   0.258   0.092   5.376  2.4683  0.5382 -0.3318
 1994SOL     OW 7422   5.364   0.893   0.657 -0.1583  0.0827 -0.1805
 1994SOL    HW1 7423   5.328   0.860   0.575  0.1058 -1.2563  0.2324
 1994SOL    HW2 7424   5.313   0.850   0.725 -0.0310  0.7912  0.3753
 1995SOL     OW 7425   3.735   2.061   0.578 -0.8632 -0.2060  0.5773
 1995SOL    HW1 7426   3.703   2.143   0.615 -0.9482  0.2578 -0.5041
 1995SOL    HW2 7427   3.716   2.067   0.485 -0.4158 -1.2464  0.4017
 1996SOL     OW 7428   2.773   1.437   9.397 -0.1361  0.0981 -0.0801
 1996SOL    HW1 7429   2.812   1.524   9.392 -0.1798  0.5099  3.5716
 1996SOL    HW2 7430   2.843   1.377   9.370  0.3119  1.1564 -1.3528
 1997SOL     OW 7431   2.707   7.008   5.671 -0.5375  0.1939  0.4443
 1997SOL    HW1 7432   2.716   7.066   5.746 -0.8666  2.1472 -0.9309
 1997SOL    HW2 7433   2.787   7.022   5.620 -1.5511  1.0898 -0.9642
 1998SOL     OW 7434   0.775   3.146   7.233 -0.0027 -0.4079  0.3053
 1998SOL    HW1 7435   0.715   3.085   7.191  0.1981  0.5923 -1.5318
 1998SOL    HW2 7436   0.748   3.233   7.203  0.5264  0.3270  1.8152
 1999SOL     OW 7437   4.772   7.356   9.730 -0.5135 -0.1041 -1.0606
 1999SOL    HW1 7438   4.729   7.288   9.782  2.8334 -2.5832 -1.1424
 1999SOL    HW2 7439   4.803   7.419   9.795  2.2289 -2.3490  0.0773
 2000SOL     OW 7440   1.283   3.739   6.414  0.3852 -0.4592  0.2534
 2000SOL    HW1 7441   1.249   3.660   6.456  0.3053 -1.0687 -0.9246
 2000SOL    HW2 7442   1.333   3.783   6.483 -1.2394 -0.4877  1.5043
 2001SOL     OW 7443   2.908   4.432   7.817  0.0824 -0.3423  0.9242
 2001SOL    HW1 7444   2.913   4.460   7.725 -0.0643 -0.3302  0.9197
 2001SOL    HW2 7445   2.882   4.340   7.813 -0.2759 -0.2425  0.9642
 2002SOL     OW 7446   1.031   2.716   8.138 -0.1006 -0.4285  0.7705
 2002SOL    HW1 7447   0.969   2.676   8.077 -0.2908  0.7121  0.1825
 2002SOL    HW2 7448   0.988   2.797   8.166  0.1130 -0.7829  2.2108
 2003SOL     OW 7449   5.196   5.972   5.716 -0.8134 -0.7703 -0.0322
 2003SOL    HW1 7450   5.282   5.954   5.754 -0.7122  1.4454  0.9672
 2003SOL    HW2 7451   5.145   6.008   5.789 -2.9090 -2.7653 -0.3860
 2004SOL     OW 7452   1.915   0.250   6.787  0.4867  0.1988 -0.6975
 2004SOL    HW1 7453   1.929   0.212   6.873  0.8516  2.2111  0.1955
 2004SOL    HW2 7454   1.877   0.179   6.735 -1.7711 -0.5109  1.6947
 2005SOL     OW 7455   0.021   4.707   6.395 -0.2494 -0.5558 -0.1988
 2005SOL    HW1 7456  -0.065   4.713   6.437 -0.0278  0.6977  0.1326
 2005SOL    HW2 7457   0.027   4.787   6.343  0.9105 -0.3864  0.1695
 2006SOL     OW 7458   3.060   6.899   6.873  0.0920 -0.4364  0.2451
 2006SOL    HW1 7459   3.032   6.989   6.858 -0.2895 -0.5798  0.0804
 2006SOL    HW2 7460   2.980   6.847   6.863  0.4950 -0.9083 -0.6821
 2007SOL     OW 7461   7.113   3.309   7.016  0.1665 -1.0641 -0.1444
 2007SOL    HW1 7462   7.059   3.308   7.095  1.2056  0.0152  0.6264
 2007SOL    HW2 7463   7.051   3.298   6.944 -0.9473 -0.8673  0.7512
 2008SOL     OW 7464   3.156   6.423  11.328  0.1608 -0.3469 -0.0281
 2008SOL    HW1 7465   3.130   6.509  11.296  1.6706 -0.3822 -1.4651
 2008SOL    HW2 7466   3.186   6.439  11.418  0.6151  0.6702 -0.3506
 2009SOL     OW 7467   3.760   0.376   9.357 -0.0833  0.2945 -0.0097
 2009SOL    HW1 7468   3.718   0.437   9.416 -0.5152  0.4085 -0.4263
 2009SOL    HW2 7469   3.825   0.428   9.310  0.5864  0.1025  0.6847
 2010SOL     OW 7470   3.996   6.630  11.394 -0.0984 -0.5246  0.3918
 2010SOL    HW1 7471   4.020   6.540  11.415 -0.3717 -0.6859  0.0235
 2010SOL    HW2 7472   3.905   6.638  11.422 -0.5701 -0.8358 -0.9782
 2011SOL     OW 7473   4.115   6.514   5.820  0.2891 -0.3824 -0.2883
 2011SOL    HW1 7474   4.127   6.570   5.897 -0.0018  0.7037 -1.0019
 2011SOL    HW2 7475   4.150   6.429   5.846  0.6653  0.1045  0.8635
 2012SOL     OW 7476   0.424   2.660   6.712  0.3458 -0.1665 -0.5701
 2012SOL    HW1 7477   0.476   2.710   6.650  1.2048 -0.4161 -0.0634
 2012SOL    HW2 7478   0.474   2.663   6.794 -1.3828  1.2873  0.5225
 2013SOL     OW 7479   5.887   5.622   6.957 -0.6683  0.2700  0.2647
 2013SOL    HW1 7480   5.836   5.607   7.036  0.0607  0.5144  0.7914
 2013SOL    HW2 7481   5.945   5.695   6.980 -1.6433  1.5146 -1.0474
 2014SOL     OW 7482   1.060   3.791  12.291 -0.1670  0.2086 -0.6396
 2014SOL    HW1 7483   1.111   3.727  12.242  0.3357  0.3711 -0.3435
 2014SOL    HW2 7484   0.971   3.755  12.294  0.2744 -0.8543  0.1999
 2015SOL     OW 7485   5.853   6.134   9.794  0.1099 -0.2234 -0.2354
 2015SOL    HW1 7486   5.946   6.112   9.785  0.4515  1.2706 -0.4744
 2015SOL    HW2 7487   5.828   6.168   9.708 -0.8182 -1.1359 -0.3457
 2016SOL     OW 7488   2.411   2.246   3.032  0.6676 -0.1999 -0.2872
 2016SOL    HW1 7489   2.445   2.165   3.069  0.6697 -1.2570 -2.4456
 2016SOL    HW2 7490   2.488   2.300   3.016  0.8851 -0.6903 -0.8978
 2017SOL     OW 7491   7.456   4.598   7.834  0.3660 -0.1898  0.4321
 2017SOL    HW1 7492   7.393   4.664   7.807  0.7346 -0.3458 -0.8774
 2017SOL    HW2 7493   7.448   4.594   7.929 -0.2786  1.1030  0.4473
 2018SOL     OW 7494   1.990   7.385   8.251  0.5897 -0.7323 -0.2047
 2018SOL    HW1 7495   1.978   7.368   8.158  1.0713 -0.3473 -0.3421
 2018SOL    HW2 7496   1.982   7.480   8.259 -1.2563 -0.9112  0.4219
 2019SOL     OW 7497   7.635   5.616  10.869 -0.1440 -0.0309 -0.1726
 2019SOL    HW1 7498   7.594   5.668  10.799  2.2155  1.5722 -0.4795
 2019SOL    HW2 7499   7.648   5.678  10.940 -1.4129 -1.3724  1.3013
 2020SOL     OW 7500   5.749   1.521   6.446 -0.0232  0.0040  0.2085
 2020SOL    HW1 7501   5.666   1.509   6.494  0.5746 -0.0813  1.2544
 2020SOL    HW2 7502   5.795   1.437   6.458  0.5002  0.2898  0.2188
 2021SOL     OW 7503   5.252   3.186   2.627  0.1482  0.1087 -0.1815
 2021SOL    HW1 7504   5.267   3.278   2.650 -1.8288  0.1721  1.0600
 2021SOL    HW2 7505   5.168   3.186   2.581  0.4213 -1.0203 -0.7218
 2022SOL     OW 7506   2.556   2.218  10.998  0.0776 -0.0309 -0.4055
 2022SOL    HW1 7507   2.486   2.162  11.031  0.0773  0.3611  0.2846
 2022SOL    HW2 7508   2.516   2.264  10.924 -0.1301 -0.4284 -0.5468
 2023SOL     OW 7509   3.018   4.351   1.846  0.4434 -0.5858 -0.4294
 2023SOL    HW1 7510   3.095   4.386   1.891  0.7315 -1.3646 -0.3089
 2023SOL    HW2 7511   2.945   4.373   1.904  0.6529 -0.4537 -0.2088
 2024SOL     OW 7512   6.178   3.910   0.381 -0.1307 -0.5574  0.3723
 2024SOL    HW1 7513   6.194   3.891   0.474  0.3527  1.1038  0.6672
 2024SOL    HW2 7514   6.266   3.910   0.342 -0.2179 -0.0142  0.1771
 2025SOL     OW 7515   5.502   5.628   2.070  0.3921  0.0120  0.3419
 2025SOL    HW1 7516   5.558   5.624   1.992  1.3003  1.4795  0.8972
 2025SOL    HW2 7517   5.419   5.662   2.038  0.2083 -0.9337 -0.2487
 2026SOL     OW 7518   5.578   6.489   7.157 -0.4892  0.6660 -0.0706
 2026SOL    HW1 7519   5.612   6.547   7.089  0.6226  0.6192  0.4377
 2026SOL    HW2 7520   5.570   6.403   7.114  0.9911  0.4441  0.0639
 2027SOL     OW 7521   5.187   4.353  10.057 -0.2192  0.0030  0.1189
 2027SOL    HW1 7522   5.181   4.274  10.003  0.0724  0.2839 -0.3336
 2027SOL    HW2 7523   5.103   4.397  10.044  0.4815  0.9508 -1.5116
 2028SOL     OW 7524   6.453   6.381   6.975 -0.1322 -0.0204  0.3031
 2028SOL    HW1 7525   6.478   6.340   6.892  1.4963  1.1017  0.2047
 2028SOL    HW2 7526   6.505   6.335   7.041  0.0010  0.3702  0.4716
 2029SOL     OW 7527   4.914   3.714  10.382 -0.3823  0.4963  0.4337
 2029SOL    HW1 7528   4.831   3.741  10.342 -1.1168  0.6266  1.9678
 2029SOL    HW2 7529   4.958   3.796  10.404  0.1511  0.4270 -0.3543
 2030SOL     OW 7530   1.195   5.697   7.159  1.0694 -0.0051  0.4220
 2030SOL    HW1 7531   1.265   5.762   7.164 -0.3184  1.6081 -0.2327
 2030SOL    HW2 7532   1.184   5.681   7.065 -0.1741  0.6409  0.4356
 2031SOL     OW 7533   6.251   3.339   2.268 -0.5917 -0.9491 -0.6969
 2031SOL    HW1 7534   6.241   3.433   2.286  1.4627 -0.7125 -0.5533
 2031SOL    HW2 7535   6.179   3.319   2.209 -0.0307  1.1775 -2.2417
 2032SOL     OW 7536   4.598   0.061   3.971  0.4008  0.5195  0.3448
 2032SOL    HW1 7537   4.504   0.075   3.985  0.1636 -0.0750 -0.5806
 2032SOL    HW2 7538   4.631   0.036   4.057 -0.5336 -0.5001  0.4318
 2033SOL     OW 7539   3.319   2.960   2.920  0.5284 -0.2983 -0.0342
 2033SOL    HW1 7540   3.412   2.948   2.938  0.5923 -0.8168 -0.6693
 2033SOL    HW2 7541   3.277   2.882   2.957  0.4840 -0.6087 -0.7174
 2034SOL     OW 7542   3.074   7.174   0.486  0.1224  0.2040  0.0039
 2034SOL    HW1 7543   3.161   7.211   0.473 -0.5667  1.8038 -0.2873
 2034SOL    HW2 7544   3.081   7.084   0.456  1.8139  0.1266  0.5203
 2035SOL     OW 7545   1.712   5.483  10.191  0.3223  0.3925  0.0756
 2035SOL    HW1 7546   1.761   5.413  10.234 -0.4993 -0.3836 -0.2011
 2035SOL    HW2 7547   1.648   5.511  10.256 -0.9775 -0.8414 -0.6103
 2036SOL     OW 7548   7.047   2.907   8.328 -0.4297 -0.5299  0.7971
 2036SOL    HW1 7549   7.008   2.994   8.341  1.0733  0.4983 -1.0269
 2036SOL    HW2 7550   7.142   2.923   8.332 -0.1271 -2.2552  1.2053
 2037SOL     OW 7551   7.010   0.054   9.986 -0.6805  0.1446  0.0689
 2037SOL    HW1 7552   7.074   0.112  10.028 -2.1163  1.0116  1.1768
 2037SOL    HW2 7553   7.017   0.073   9.893  1.3083 -0.4847  0.0424
 2038SOL     OW 7554   3.134   6.336   8.771 -0.7589  0.3148  0.4472
 2038SOL    HW1 7555   3.087   6.254   8.786  0.3787 -0.1646  1.4870
 2038SOL    HW2 7556   3.178   6.323   8.687 -0.4330 -0.2045  0.6984
 2039SOL     OW 7557   3.162   7.071  12.358  0.1083  0.4970 -0.3529
 2039SOL    HW1 7558   3.135   7.083  12.449 -1.3403  0.0894 -0.6975
 2039SOL    HW2 7559   3.211   6.989  12.358 -0.9480 -0.1515 -0.1253
 2040SOL     OW 7560   6.561   2.785  10.926 -0.0156  0.1616  0.1695
 2040SOL    HW1 7561   6.497   2.774  10.997  0.4150  1.9981  0.8874
 2040SOL    HW2 7562   6.520   2.847  10.866  1.1788  1.6556  0.8244
 2041SOL     OW 7563   4.850   2.490   4.026  0.0404 -0.6584 -0.3788
 2041SOL    HW1 7564   4.802   2.559   3.979  1.8157 -0.3827 -1.9433
 2041SOL    HW2 7565   4.857   2.419   3.962  0.0383 -1.4536  0.4944
 2042SOL     OW 7566   4.596   0.021   1.062 -0.1333  0.0529 -0.2228
 2042SOL    HW1 7567   4.586   0.006   0.968  0.5223  0.5416 -0.3716
 2042SOL    HW2 7568   4.690   0.015   1.078  0.0083  2.0695  0.0159
 2043SOL     OW 7569   6.850   3.285   0.644  0.0352  0.4458  0.6117
 2043SOL    HW1 7570   6.758   3.277   0.671 -0.2239 -0.6031 -0.5056
 2043SOL    HW2 7571   6.846   3.299   0.550  1.0029  1.7738  0.7406
 2044SOL     OW 7572   7.843   2.887   5.017 -0.2176 -0.2520 -0.6305
 2044SOL    HW1 7573   7.783   2.961   5.005 -0.9124 -0.2099  2.3302
 2044SOL    HW2 7574   7.790   2.819   5.058  1.4750 -0.6134  1.0893
 2045SOL     OW 7575   3.007   2.047   6.233 -0.1426  0.1654  0.2169
 2045SOL    HW1 7576   2.999   2.140   6.249 -0.1475  0.2622 -0.3191
 2045SOL    HW2 7577   3.088   2.038   6.183 -0.7822  0.0293 -0.8318
 2046SOL     OW 7578   5.114   7.873   0.525 -0.0969  0.2388  0.3545
 2046SOL    HW1 7579   5.192   7.924   0.546 -0.2390  1.1690 -1.2161
 2046SOL    HW2 7580   5.115   7.801   0.588 -0.4801  2.7168  3.3984
 2047SOL     OW 7581   3.881   5.493   0.985 -0.1979 -0.3564  0.3267
 2047SOL    HW1 7582   3.845   5.406   0.999  2.9857 -1.5323  2.1619
 2047SOL    HW2 7583   3.845   5.547   1.055 -1.7970 -0.2298 -0.5362
 2048SOL     OW 7584   3.240   1.764   6.241  0.2477  0.2640 -0.5854
 2048SOL    HW1 7585   3.235   1.857   6.218  1.0193  0.0788 -1.5784
 2048SOL    HW2 7586   3.332   1.741   6.227  0.3535 -0.3471  0.9179
 2049SOL     OW 7587   1.890   6.886   7.728  0.7701  0.1533 -0.2015
 2049SOL    HW1 7588   1.929   6.964   7.767  0.1973  0.5831 -0.4801
 2049SOL    HW2 7589   1.803   6.880   7.769  0.6548 -0.1039 -0.4820
 2050SOL     OW 7590   6.751   2.192  10.460 -0.1488  0.1839 -0.0154
 2050SOL    HW1 7591   6.707   2.231  10.385  0.2045 -0.1555 -0.4100
 2050SOL    HW2 7592   6.700   2.220  10.536  0.1132  1.4299 -0.2759
 2051SOL     OW 7593   3.585   3.692   3.460  0.4210 -0.6514  0.2550
 2051SOL    HW1 7594   3.665   3.722   3.415  0.1802  2.6910  1.7064
 2051SOL    HW2 7595   3.582   3.598   3.444  2.3283 -0.2912 -3.4599
 2052SOL     OW 7596   1.722   7.398   8.239  0.6822  0.3043 -0.0028
 2052SOL    HW1 7597   1.802   7.386   8.289 -0.0580 -0.2945  1.0899
 2052SOL    HW2 7598   1.654   7.355   8.291 -0.0424 -0.8592 -1.8053
 2053SOL     OW 7599   5.215   7.022  11.037  0.1752  0.4380 -0.1564
 2053SOL    HW1 7600   5.276   6.955  11.068  1.2190  0.3578 -2.2848
 2053SOL    HW2 7601   5.221   7.019  10.942 -0.7160  2.6979 -0.3463
 2054SOL     OW 7602   5.903   4.755  12.062 -0.1397  0.0901 -0.2115
 2054SOL    HW1 7603   5.851   4.800  11.994 -0.7100  0.1041  0.2304
 2054SOL    HW2 7604   5.839   4.711  12.117  0.1105  1.9693  1.7167
 2055SOL     OW 7605   3.875   1.178   7.165 -0.2341 -0.7110  0.7044
 2055SOL    HW1 7606   3.936   1.114   7.129 -0.5029  0.0827 -1.2973
 2055SOL    HW2 7607   3.923   1.261   7.164 -1.3841 -0.0038 -1.2472
 2056SOL     OW 7608   6.837   0.011   0.452 -0.1023  0.1363  0.5081
 2056SOL    HW1 7609   6.906   0.077   0.454 -0.5765  0.6422  0.5737
 2056SOL    HW2 7610   6.767   0.052   0.401 -0.0899 -0.6354 -0.1427
 2057SOL     OW 7611   7.783   4.005   4.818 -0.0618 -0.2734 -0.1363
 2057SOL    HW1 7612   7.778   3.921   4.773  0.9444 -0.0739 -0.6451
 2057SOL    HW2 7613   7.860   4.048   4.781  0.8188 -0.1038  1.7563
 2058SOL     OW 7614   7.134   2.721  10.789  0.1743  0.2395 -0.4195
 2058SOL    HW1 7615   7.043   2.726  10.760 -0.0031  0.5852  0.1713
 2058SOL    HW2 7616   7.131   2.749  10.881  0.9359  0.6529 -0.5164
 2059SOL     OW 7617   4.342   1.593   4.080 -0.7809 -0.1929 -0.2875
 2059SOL    HW1 7618   4.346   1.658   4.151  0.0924 -0.7029  0.1532
 2059SOL    HW2 7619   4.260   1.612   4.034 -0.4681  1.3261 -0.2759
 2060SOL     OW 7620   0.039   5.768  11.010 -0.2652  0.3241 -0.4209
 2060SOL    HW1 7621   0.015   5.718  11.088 -0.3703  0.0093 -0.6497
 2060SOL    HW2 7622   0.023   5.859  11.033 -0.0564  0.2537  0.0109
 2061SOL     OW 7623   5.163   2.899   7.978  0.2160 -0.5268 -0.7727
 2061SOL    HW1 7624   5.130   2.835   7.914  0.2034  0.7879 -2.1543
 2061SOL    HW2 7625   5.224   2.849   8.032 -1.2683 -2.1552 -0.5065
 2062SOL     OW 7626   4.228   2.555   2.347 -0.0269 -0.0250  0.0867
 2062SOL    HW1 7627   4.171   2.546   2.423  0.7166  1.6115  0.8998
 2062SOL    HW2 7628   4.170   2.581   2.276 -0.4892  0.2225  0.5535
 2063SOL     OW 7629   2.112   4.751   5.590  0.1059 -0.0260  0.0136
 2063SOL    HW1 7630   2.129   4.664   5.627 -1.5777 -0.0927  0.6865
 2063SOL    HW2 7631   2.101   4.736   5.497  1.7223 -0.2320 -0.1839
 2064SOL     OW 7632   0.671   4.971   4.552  0.4935 -0.4222 -0.0095
 2064SOL    HW1 7633   0.666   4.889   4.503  0.8912 -1.2893  1.3706
 2064SOL    HW2 7634   0.764   4.982   4.570  0.3427 -0.1535  0.6197
 2065SOL     OW 7635   4.046   3.627   4.972 -0.0978  0.5829 -0.1671
 2065SOL    HW1 7636   3.990   3.605   5.047  0.8551  2.4916  1.2070
 2065SOL    HW2 7637   4.131   3.589   4.994  0.1842  1.1395 -0.2614
 2066SOL     OW 7638   2.247   6.413   1.181 -0.0558  0.1380 -0.3530
 2066SOL    HW1 7639   2.255   6.486   1.120  0.5277  0.6419  0.3117
 2066SOL    HW2 7640   2.330   6.366   1.174  0.4397  0.7948  0.7800
 2067SOL     OW 7641   1.718   5.316   2.618 -0.0104 -0.7806 -0.0279
 2067SOL    HW1 7642   1.746   5.359   2.699 -0.4241 -0.9131  0.1881
 2067SOL    HW2 7643   1.726   5.223   2.636  0.6409 -0.8025 -0.4099
 2068SOL     OW 7644   7.846   5.468   4.843  0.0278  0.2524 -0.1220
 2068SOL    HW1 7645   7.836   5.560   4.868 -1.3536  0.2471 -0.5855
 2068SOL    HW2 7646   7.795   5.460   4.763 -0.3228 -1.0514  0.2224
 2069SOL     OW 7647   3.492   2.954   4.642  0.3858 -0.0630 -0.1181
 2069SOL    HW1 7648   3.573   3.006   4.644  0.8518 -0.7985  0.4876
 2069SOL    HW2 7649   3.521   2.864   4.653 -0.6370 -0.1988  1.7660
 2070SOL     OW 7650   4.436   5.725   2.112  0.0711  0.5228 -0.2206
 2070SOL    HW1 7651   4.463   5.637   2.137 -0.3966  0.2445 -0.6653
 2070SOL    HW2 7652   4.351   5.737   2.154 -0.2432  0.4438 -0.8245
 2071SOL     OW 7653   4.213   0.917   2.607  0.2469 -0.0916 -0.0631
 2071SOL    HW1 7654   4.232   0.841   2.662 -0.3705 -1.1694 -1.2915
 2071SOL    HW2 7655   4.117   0.919   2.601  0.1274  1.9231  1.4664
 2072SOL     OW 7656   5.456   4.061   9.273  0.1548 -0.4716 -0.5076
 2072SOL    HW1 7657   5.532   4.101   9.229 -1.3993  0.2013 -2.7355
 2072SOL    HW2 7658   5.480   3.969   9.282  1.5637 -0.1266 -0.3682
 2073SOL     OW 7659   5.112   0.946   0.195  0.2866 -0.0933 -0.0817
 2073SOL    HW1 7660   5.040   0.889   0.166  0.6515  0.5905 -2.5938
 2073SOL    HW2 7661   5.081   1.034   0.177  1.3466  0.2701 -0.1795
 2074SOL     OW 7662   0.565   5.674   5.496 -0.1544 -0.0577 -0.3777
 2074SOL    HW1 7663   0.596   5.656   5.585 -0.3286 -0.1600 -0.3372
 2074SOL    HW2 7664   0.474   5.701   5.508  0.0983  0.8375 -0.4400
 2075SOL     OW 7665   4.519   3.662   9.269 -0.2131  0.1316  0.0827
 2075SOL    HW1 7666   4.502   3.613   9.349 -1.0948  0.2367 -0.0354
 2075SOL    HW2 7667   4.613   3.649   9.253  0.0291  0.3389  1.2717
 2076SOL     OW 7668   5.520   2.417   0.010 -0.1228 -0.1007  0.2630
 2076SOL    HW1 7669   5.434   2.396   0.044  0.0467  0.2556  0.9250
 2076SOL    HW2 7670   5.535   2.508   0.037  0.0430  0.1745 -0.7074
 2077SOL     OW 7671   6.765   2.656   7.065  0.4854 -0.4067  0.0748
 2077SOL    HW1 7672   6.718   2.579   7.031 -0.7164 -0.4446  1.7129
 2077SOL    HW2 7673   6.715   2.730   7.031  0.0047 -0.4222  0.7289
 2078SOL     OW 7674   2.153   6.319   8.222  0.0019  0.4702  0.5093
 2078SOL    HW1 7675   2.246   6.324   8.239  0.3985 -3.0262  0.1906
 2078SOL    HW2 7676   2.125   6.236   8.261 -2.8587  1.1051  0.0958
 2079SOL     OW 7677   5.117   6.354  10.801 -0.3316  0.2735 -0.1246
 2079SOL    HW1 7678   5.168   6.295  10.857  1.4146 -0.1311 -2.0177
 2079SOL    HW2 7679   5.050   6.298  10.763 -0.1129  0.0261 -0.1535
 2080SOL     OW 7680   4.015   6.879  12.263 -0.1819 -0.1244 -0.4955
 2080SOL    HW1 7681   4.090   6.933  12.237 -1.7554  2.9192  0.7760
 2080SOL    HW2 7682   3.982   6.842  12.181  0.8726  1.0441 -1.4878
 2081SOL     OW 7683   2.806   1.423   3.340 -0.0569  0.1637  0.6746
 2081SOL    HW1 7684   2.774   1.470   3.263 -1.5839  0.0394  1.2035
 2081SOL    HW2 7685   2.831   1.337   3.306  0.2367  0.4488  0.1544
 2082SOL     OW 7686   2.681   0.684   2.204  0.5178  0.5530 -0.7241
 2082SOL    HW1 7687   2.772   0.675   2.175  0.4758  1.0921 -1.0253
 2082SOL    HW2 7688   2.634   0.714   2.127 -0.1250 -0.7761 -0.8785
 2083SOL     OW 7689   4.553   5.886   5.550 -0.4056 -0.1220  0.1168
 2083SOL    HW1 7690   4.534   5.941   5.474 -2.7013  0.2944  0.9402
 2083SOL    HW2 7691   4.560   5.798   5.514 -0.2950  0.2172 -0.7180
 2084SOL     OW 7692   4.215   1.107  10.367 -0.0758 -0.4805  0.5977
 2084SOL    HW1 7693   4.237   1.196  10.342  3.1080 -0.9114  1.4298
 2084SOL    HW2 7694   4.188   1.064  10.286 -2.4159  1.3265  0.3130
 2085SOL     OW 7695   3.834   1.704   5.004 -0.4359  0.0497  0.2320
 2085SOL    HW1 7696   3.741   1.688   5.020 -0.4281  0.9250  1.3646
 2085SOL    HW2 7697   3.841   1.715   4.910 -1.4563 -0.1946  0.1147
 2086SOL     OW 7698   2.762   5.493   6.242 -0.3125 -0.2177 -0.0685
 2086SOL    HW1 7699   2.783   5.486   6.335 -0.4862 -1.1709 -0.0969
 2086SOL    HW2 7700   2.825   5.557   6.209  0.8486 -1.0856  0.3852
 2087SOL     OW 7701   1.808   4.132  10.990 -0.3231  0.4822 -0.5484
 2087SOL    HW1 7702   1.864   4.171  11.057 -0.8895  0.4575 -0.0553
 2087SOL    HW2 7703   1.869   4.083  10.934 -0.0232 -0.9840  0.9710
 2088SOL     OW 7704   0.456   3.922   6.415  0.3350  0.0893 -0.3157
 2088SOL    HW1 7705   0.436   3.866   6.340 -1.2530 -0.8961  0.8028
 2088SOL    HW2 7706   0.371   3.945   6.452  1.0956 -1.0766  2.3616
 2089SOL     OW 7707   7.681   0.221  10.742  0.5518 -0.4905 -0.2592
 2089SOL    HW1 7708   7.753   0.252  10.797  0.3684 -1.0794  0.3253
 2089SOL    HW2 7709   7.666   0.131  10.771  0.2247 -0.6979 -1.0478
 2090SOL     OW 7710   7.241   6.689   9.422 -0.1173 -0.0219 -0.2123
 2090SOL    HW1 7711   7.247   6.716   9.513  0.6816  0.2008 -0.3242
 2090SOL    HW2 7712   7.229   6.771   9.373 -0.7718 -0.1596 -0.2952
 2091SOL     OW 7713   4.279   0.562   7.119 -0.0561 -0.3703 -0.3748
 2091SOL    HW1 7714   4.269   0.591   7.029 -1.0305 -0.2004 -0.2257
 2091SOL    HW2 7715   4.195   0.521   7.141  1.0485 -2.8120 -0.3928
 2092SOL     OW 7716   0.770   4.681   1.927  0.5483 -0.4744 -0.2655
 2092SOL    HW1 7717   0.678   4.691   1.903  1.0552  1.6667 -1.4788
 2092SOL    HW2 7718   0.801   4.770   1.943  1.5181 -1.3418  3.8601
 2093SOL     OW 7719   5.109   6.395   2.208 -0.6266  0.0790  0.1003
 2093SOL    HW1 7720   5.078   6.306   2.227 -0.3201 -0.0031  0.2149
 2093SOL    HW2 7721   5.146   6.389   2.120  0.6362 -0.2294  0.6375
 2094SOL     OW 7722   2.985   1.391   3.968  0.3172 -0.0149  0.2481
 2094SOL    HW1 7723   3.039   1.323   4.009  0.1523 -0.1484  0.2444
 2094SOL    HW2 7724   2.925   1.342   3.911 -0.3091  0.0749  0.8170
 2095SOL     OW 7725   6.790   6.365  10.623 -0.0328 -0.6553 -0.3490
 2095SOL    HW1 7726   6.771   6.302  10.555 -2.4671 -0.5189  0.1341
 2095SOL    HW2 7727   6.829   6.440  10.577 -0.1771 -1.1874 -1.3426
 2096SOL     OW 7728   5.812   6.936   1.014 -0.1277 -0.3830 -0.3810
 2096SOL    HW1 7729   5.722   6.902   1.012 -0.4984  0.5178 -3.2199
 2096SOL    HW2 7730   5.864   6.862   1.047 -1.8633 -0.8747  1.4988
 2097SOL     OW 7731   2.504   5.923   9.469  0.1730 -0.6294  0.1124
 2097SOL    HW1 7732   2.449   5.912   9.546 -0.3977 -0.6688 -0.2932
 2097SOL    HW2 7733   2.593   5.922   9.503 -0.0918  0.4543  0.9005
 2098SOL     OW 7734   3.866   7.922   1.178 -0.0785 -0.2870 -0.5232
 2098SOL    HW1 7735   3.842   7.830   1.189 -0.2414 -0.1116  0.7842
 2098SOL    HW2 7736   3.791   7.962   1.136 -0.6321 -0.4624  0.2792
 2099SOL     OW 7737   1.695   6.666   3.957  0.0962 -0.1699  0.4320
 2099SOL    HW1 7738   1.603   6.653   3.982 -0.0060  1.1435  0.8555
 2099SOL    HW2 7739   1.738   6.584   3.979 -1.0553 -0.9878 -0.2118
 2100SOL     OW 7740   0.413   7.059   4.664 -0.6657 -0.0346 -0.3788
 2100SOL    HW1 7741   0.410   7.044   4.569 -0.0895 -0.1287 -0.3841
 2100SOL    HW2 7742   0.360   7.138   4.677 -0.5171  0.1411 -0.8122
 2101SOL     OW 7743   3.214   7.834  11.406  0.0547  0.1382  0.1440
 2101SOL    HW1 7744   3.122   7.821  11.429 -0.0488 -1.4310 -0.9356
 2101SOL    HW2 7745   3.216   7.824  11.311  1.3871 -0.1459  0.1843
 2102SOL     OW 7746   7.938   4.550   8.439  0.4293  0.6049  0.1648
 2102SOL    HW1 7747   7.958   4.458   8.449  0.5524  0.4286 -1.4058
 2102SOL    HW2 7748   7.948   4.587   8.526  0.0004 -0.9275  0.8901
 2103SOL     OW 7749   1.975   4.862   3.569 -0.1723  0.6581 -0.2298
 2103SOL    HW1 7750   1.940   4.839   3.655  1.4886 -0.5753  0.1592
 2103SOL    HW2 7751   2.029   4.939   3.585  1.1771 -0.3139  0.1395
 2104SOL     OW 7752   3.620   2.270   6.088 -0.5153 -0.7531  0.6086
 2104SOL    HW1 7753   3.651   2.314   6.167  1.5557 -1.6610  0.3594
 2104SOL    HW2 7754   3.525   2.274   6.094 -0.4647 -1.6193  3.6425
 2105SOL     OW 7755   0.811   7.733   1.793 -0.0865  0.6023  0.0138
 2105SOL    HW1 7756   0.903   7.737   1.766 -0.1721 -0.8048 -0.5579
 2105SOL    HW2 7757   0.803   7.800   1.860  1.7100 -0.2415  1.1389
 2106SOL     OW 7758   5.214   1.004   5.094  0.3346  0.6081  0.3399
 2106SOL    HW1 7759   5.278   0.972   5.030 -0.4628  1.2399 -0.8099
 2106SOL    HW2 7760   5.250   0.978   5.179  1.7461  0.3098 -0.3182
 2107SOL     OW 7761   6.619   7.457  11.595 -0.2149  0.7505 -0.2374
 2107SOL    HW1 7762   6.665   7.416  11.668 -2.5907 -1.1651  0.3043
 2107SOL    HW2 7763   6.544   7.501  11.635 -2.1828 -1.2429 -1.4697
 2108SOL     OW 7764   1.313   6.420   9.581 -0.1919 -0.3876 -0.2095
 2108SOL    HW1 7765   1.293   6.513   9.593 -1.5268 -0.8352  1.3922
 2108SOL    HW2 7766   1.374   6.399   9.652 -0.1739 -0.8247 -0.3504
 2109SOL     OW 7767   3.823   3.068   8.358 -0.3609 -0.4539  1.1035
 2109SOL    HW1 7768   3.840   3.008   8.285  0.4405 -0.2695  1.1258
 2109SOL    HW2 7769   3.883   3.141   8.343 -1.3299  0.3469  1.0797
 2110SOL     OW 7770   2.307   3.600   5.176 -0.1708  1.0548 -0.1932
 2110SOL    HW1 7771   2.235   3.627   5.118 -0.9020 -0.3265  0.0244
 2110SOL    HW2 7772   2.319   3.507   5.157  0.5577  0.9225  0.8534
 2111SOL     OW 7773   5.487   2.584   2.017 -0.1197  0.0088  0.0950
 2111SOL    HW1 7774   5.483   2.496   1.981  0.9237 -0.1823  0.4009
 2111SOL    HW2 7775   5.396   2.611   2.027 -0.5093 -1.7692  1.7900
 2112SOL     OW 7776   7.167   0.523   4.990 -0.0661  0.5402  0.5566
 2112SOL    HW1 7777   7.123   0.600   4.953 -0.6851  0.0988  0.3618
 2112SOL    HW2 7778   7.101   0.484   5.048  0.1903  0.0698  0.5308
 2113SOL     OW 7779   4.966   3.281   6.503 -0.0247  0.7269  0.3323
 2113SOL    HW1 7780   4.916   3.326   6.571  0.2854  1.5702  0.0185
 2113SOL    HW2 7781   5.056   3.284   6.534 -0.0682 -0.1458  0.5509
 2114SOL     OW 7782   4.540   0.468   0.332  0.4887  0.6610  0.0889
 2114SOL    HW1 7783   4.503   0.409   0.399 -0.3600  1.6524  0.5078
 2114SOL    HW2 7784   4.599   0.412   0.282 -1.0784 -0.8210 -0.1894
 2115SOL     OW 7785   7.303   5.219  11.362 -0.3375 -0.3182 -0.2672
 2115SOL    HW1 7786   7.226   5.162  11.366 -1.8288  1.6329  0.8828
 2115SOL    HW2 7787   7.360   5.186  11.432 -0.1945 -1.6587 -0.9885
 2116SOL     OW 7788   7.694   1.195   9.125  0.1486  0.1446 -0.0077
 2116SOL    HW1 7789   7.769   1.151   9.083  0.0169 -0.5300  0.4465
 2116SOL    HW2 7790   7.655   1.248   9.056  0.9543  0.3812 -0.2925
 2117SOL     OW 7791   5.637   5.489   2.269 -0.3219 -0.1529  0.2732
 2117SOL    HW1 7792   5.579   5.549   2.222  1.9583  1.8618 -0.1858
 2117SOL    HW2 7793   5.679   5.436   2.201 -0.8188 -0.8556  0.5065
 2118SOL     OW 7794   1.482   1.279   4.134  0.5209 -0.1790  0.3269
 2118SOL    HW1 7795   1.446   1.190   4.135 -2.2643  0.8769  0.8411
 2118SOL    HW2 7796   1.517   1.289   4.045 -0.6115 -1.2501 -0.2721
 2119SOL     OW 7797   1.907   2.145   5.448  0.0398 -0.1943  0.0323
 2119SOL    HW1 7798   1.833   2.125   5.390  0.0902  2.5630 -1.1205
 2119SOL    HW2 7799   1.967   2.196   5.393  2.7739 -2.1412  0.9967
 2120SOL     OW 7800   3.502   7.230   8.385  0.2033 -0.1928 -0.1315
 2120SOL    HW1 7801   3.523   7.311   8.432 -0.2306 -0.5892  0.7775
 2120SOL    HW2 7802   3.409   7.217   8.400  0.1007 -0.4452 -0.9422
 2121SOL     OW 7803   7.893   1.788  10.249  0.2774 -0.1390  0.0791
 2121SOL    HW1 7804   7.829   1.784  10.320  0.1108 -0.0057 -0.0641
 2121SOL    HW2 7805   7.977   1.773  10.292  0.2589  0.7052  0.4225
 2122SOL     OW 7806   1.781   2.170  10.071  0.3768  0.1815  0.2908
 2122SOL    HW1 7807   1.809   2.214   9.991  1.2195 -0.9603 -0.0701
 2122SOL    HW2 7808   1.861   2.167  10.125  0.0193  0.2012  0.8263
 2123SOL     OW 7809   6.686   7.540   5.873  0.3421  0.0231 -0.3474
 2123SOL    HW1 7810   6.762   7.508   5.824  0.0564 -0.4962 -0.4616
 2123SOL    HW2 7811   6.651   7.612   5.820  0.5558  0.0413 -0.4620
 2124SOL     OW 7812   6.830   4.890   2.158  0.4159 -0.1936 -0.7188
 2124SOL    HW1 7813   6.832   4.794   2.157  0.0727 -0.1999 -0.8727
 2124SOL    HW2 7814   6.824   4.913   2.250  1.7288 -0.2903 -0.5891
 2125SOL     OW 7815   7.048   5.231   9.980  0.1286  0.1933 -0.4299
 2125SOL    HW1 7816   7.062   5.229  10.075  1.4742  0.9983 -0.5839
 2125SOL    HW2 7817   6.984   5.162   9.964  2.3078 -2.2820  0.6990
 2126SOL     OW 7818   3.397   5.184   2.386  0.1708  0.1260  0.3763
 2126SOL    HW1 7819   3.410   5.205   2.478  2.3992 -0.6132  0.3077
 2126SOL    HW2 7820   3.455   5.109   2.371 -2.0484 -1.4499 -1.0466
 2127SOL     OW 7821   3.875   4.723  12.390 -0.1059  0.2970 -0.3183
 2127SOL    HW1 7822   3.840   4.704  12.477 -0.3367  2.7945  0.2109
 2127SOL    HW2 7823   3.812   4.784  12.351  0.9210  0.6528 -1.5099
 2128SOL     OW 7824   4.625   1.144  11.793 -0.3047  0.0560  0.0279
 2128SOL    HW1 7825   4.663   1.065  11.756  0.9841  1.4390 -1.7998
 2128SOL    HW2 7826   4.532   1.139  11.770 -0.5294 -1.5317  1.1409
 2129SOL     OW 7827   3.630   4.461   0.301  0.8755  0.0340  0.1296
 2129SOL    HW1 7828   3.723   4.465   0.325  1.0932  0.3556 -0.7101
 2129SOL    HW2 7829   3.585   4.434   0.381  1.8615 -1.6868  0.1387
 2130SOL     OW 7830   0.504   4.635   5.994 -0.5051 -0.0723 -0.0910
 2130SOL    HW1 7831   0.511   4.693   5.918  1.0282  2.0523  1.5393
 2130SOL    HW2 7832   0.555   4.558   5.970  1.2538  1.2247 -0.7078
 2131SOL     OW 7833   1.954   7.100   6.136  0.5890  0.4831 -0.4195
 2131SOL    HW1 7834   1.878   7.103   6.194  0.5641 -3.1238 -0.0632
 2131SOL    HW2 7835   1.935   7.167   6.069 -2.0255  0.9368  0.6377
 2132SOL     OW 7836   3.713   1.949   4.867  0.1290  0.2638  0.2324
 2132SOL    HW1 7837   3.668   1.919   4.946 -0.3293  0.3051 -0.0089
 2132SOL    HW2 7838   3.696   2.043   4.864  1.9848  0.6720  1.2575
 2133SOL     OW 7839   7.149   0.890   9.373 -0.7030 -0.3454 -0.2688
 2133SOL    HW1 7840   7.209   0.962   9.393 -0.8654  0.3660 -2.1025
 2133SOL    HW2 7841   7.154   0.881   9.278 -2.0304 -1.5915 -0.2557
 2134SOL     OW 7842   5.745   6.787   8.087 -0.4967  0.3570 -0.4073
 2134SOL    HW1 7843   5.764   6.858   8.148  1.1510 -0.7386  0.4488
 2134SOL    HW2 7844   5.758   6.825   8.000  0.1671  1.1541  0.0309
 2135SOL     OW 7845   5.310   6.416  10.053 -0.4366 -0.0968  0.7891
 2135SOL    HW1 7846   5.312   6.374  10.139 -0.6064 -3.1159 -0.5882
 2135SOL    HW2 7847   5.383   6.378  10.005  0.0461  2.0058 -0.2641
 2136SOL     OW 7848   0.700   1.327   3.032  0.1443  0.2091  0.0341
 2136SOL    HW1 7849   0.711   1.420   3.048 -0.4249  0.0277  1.6832
 2136SOL    HW2 7850   0.688   1.320   2.937  0.3631  1.7813 -0.1295
 2137SOL     OW 7851   0.642   3.368  10.653  0.6429 -0.5704 -0.6370
 2137SOL    HW1 7852   0.624   3.285  10.608  0.0788 -0.8638  0.1171
 2137SOL    HW2 7853   0.645   3.344  10.746  2.2821 -0.0682 -0.5259
 2138SOL     OW 7854   0.810   4.216   9.119 -0.0162  0.1836 -0.1900
 2138SOL    HW1 7855   0.786   4.174   9.036 -0.5744  0.8099 -0.3555
 2138SOL    HW2 7856   0.748   4.288   9.128  0.2118  0.2841  0.6463
 2139SOL     OW 7857   0.896   6.597   5.044 -0.2383 -0.4492 -0.3248
 2139SOL    HW1 7858   0.833   6.645   5.098 -0.8949 -1.6641  0.0114
 2139SOL    HW2 7859   0.847   6.578   4.964  0.4370  0.5314 -0.9966
 2140SOL     OW 7860   4.644   1.139   1.451 -0.1777  0.9366 -0.3843
 2140SOL    HW1 7861   4.694   1.209   1.492 -0.6946  0.7528  0.6113
 2140SOL    HW2 7862   4.693   1.060   1.470 -1.9222  0.4212  2.6956
 2141SOL     OW 7863   1.253   3.868   9.493  0.2495  0.1948 -0.0957
 2141SOL    HW1 7864   1.242   3.784   9.448 -0.3040  0.2920 -0.1412
 2141SOL    HW2 7865   1.254   3.844   9.586  1.9442 -0.0708 -0.1465
 2142SOL     OW 7866   7.275   7.275  10.785  0.4305 -0.8086 -0.0692
 2142SOL    HW1 7867   7.348   7.259  10.725  1.8557 -0.3951  1.5147
 2142SOL    HW2 7868   7.302   7.236  10.868  0.0625  1.6821  1.3250
 2143SOL     OW 7869   4.867   1.722  10.928 -0.2731  0.0036  0.7867
 2143SOL    HW1 7870   4.842   1.632  10.948  1.4309 -1.0604 -1.3635
 2143SOL    HW2 7871   4.920   1.749  11.003  0.1408 -1.2188  0.9644
 2144SOL     OW 7872   7.154   0.973   7.517 -0.0979  0.0763 -0.2734
 2144SOL    HW1 7873   7.064   0.963   7.547 -0.4794  0.0776 -1.3535
 2144SOL    HW2 7874   7.148   0.960   7.422  1.4098 -2.5539 -0.1155
 2145SOL     OW 7875   1.034   1.720  11.671  0.1476 -0.1028 -0.3159
 2145SOL    HW1 7876   0.997   1.807  11.660  0.4268  0.3245  1.7845
 2145SOL    HW2 7877   0.982   1.665  11.612 -1.5086  1.0905 -0.0617
 2146SOL     OW 7878   3.216   3.615   3.877  0.5519 -0.8457 -0.1499
 2146SOL    HW1 7879   3.274   3.630   3.802 -0.9686 -1.0584 -1.4245
 2146SOL    HW2 7880   3.143   3.566   3.840 -1.7496  1.6586  0.7736
 2147SOL     OW 7881   5.296   3.777   1.204 -0.2789  0.3500 -0.8552
 2147SOL    HW1 7882   5.363   3.717   1.236 -0.4461  1.1462  1.1456
 2147SOL    HW2 7883   5.216   3.725   1.204 -0.6004  0.6692  1.7103
 2148SOL     OW 7884   0.037   0.617  10.881  0.2343 -0.4140  0.3019
 2148SOL    HW1 7885   0.048   0.523  10.867 -2.9042 -0.7915 -0.2842
 2148SOL    HW2 7886  -0.023   0.645  10.813 -1.3554  1.3637  2.2892
 2149SOL     OW 7887   3.369   5.104   6.533 -0.5026  0.4412  0.3129
 2149SOL    HW1 7888   3.386   5.010   6.529 -1.5038  0.2959 -1.3414
 2149SOL    HW2 7889   3.373   5.125   6.626  1.2037 -0.9404  0.5991
 2150SOL     OW 7890   4.830   2.548   2.433 -0.2578 -0.1865 -0.4784
 2150SOL    HW1 7891   4.819   2.506   2.348 -0.0386  0.1875 -0.6932
 2150SOL    HW2 7892   4.894   2.617   2.418  0.2158 -0.4801  0.1143
 2151SOL     OW 7893   5.810   5.625  10.286  0.1219  0.6001 -0.2675
 2151SOL    HW1 7894   5.748   5.553  10.282  0.0769  0.5913  0.4070
 2151SOL    HW2 7895   5.782   5.685  10.216 -0.6050  0.5625 -0.0210
 2152SOL     OW 7896   7.206   1.121  11.884 -0.1925  0.0681 -0.0490
 2152SOL    HW1 7897   7.141   1.114  11.954 -0.1404 -0.8383 -0.0741
 2152SOL    HW2 7898   7.284   1.079  11.921 -0.1231 -0.2904 -0.5997
 2153SOL     OW 7899   4.483   0.541   8.669  0.2705  0.0411 -0.1147
 2153SOL    HW1 7900   4.475   0.446   8.665 -1.2303  0.1058  0.5957
 2153SOL    HW2 7901   4.416   0.574   8.609 -0.8426  0.6289  1.3701
 2154SOL     OW 7902   5.970   2.412   3.157 -0.3338 -0.2677 -0.1459
 2154SOL    HW1 7903   6.006   2.387   3.071  2.3882 -1.2701  1.1596
 2154SOL    HW2 7904   6.039   2.390   3.219 -2.7168 -0.8692  2.5075
 2155SOL     OW 7905   2.819   5.539   9.423  0.7380  0.3283 -0.2451
 2155SOL    HW1 7906   2.828   5.587   9.506  1.0175  2.4749 -1.4296
 2155SOL    HW2 7907   2.901   5.557   9.377 -0.7625  2.1801 -2.4024
 2156SOL     OW 7908   2.778   7.502   1.623  0.6252 -0.0239 -0.3813
 2156SOL    HW1 7909   2.699   7.546   1.655  1.2127 -0.5228  2.0176
 2156SOL    HW2 7910   2.835   7.499   1.700  1.7664 -2.3432 -1.2328
 2157SOL     OW 7911   4.404   6.017   2.293 -0.4570 -0.2089 -0.1153
 2157SOL    HW1 7912   4.440   6.022   2.382 -1.8120 -0.2410  0.4529
 2157SOL    HW2 7913   4.423   5.927   2.265  0.1345 -0.1464  0.0606
 2158SOL     OW 7914   5.049   3.098   9.486  0.6197  0.0380 -0.2229
 2158SOL    HW1 7915   5.028   3.169   9.425  1.0176  1.0469  0.7621
 2158SOL    HW2 7916   4.993   3.115   9.562  0.8002 -0.6415  0.0664
 2159SOL     OW 7917   3.562   5.779  10.029  1.1099  0.2025 -0.1726
 2159SOL    HW1 7918   3.624   5.824   9.972  1.7265 -1.1630 -0.6158
 2159SOL    HW2 7919   3.613   5.712  10.073  0.1126 -0.4255  0.0662
 2160SOL     OW 7920   4.544   6.786   5.852  0.0359 -0.4725  0.2924
 2160SOL    HW1 7921   4.633   6.803   5.822  0.7404  0.2366  2.5344
 2160SOL    HW2 7922   4.529   6.694   5.832  1.6344 -0.8391  0.6218
 2161SOL     OW 7923   4.769   3.770   5.404 -0.9966  0.3590  0.1938
 2161SOL    HW1 7924   4.856   3.786   5.441 -2.4038  1.0683  3.4920
 2161SOL    HW2 7925   4.786   3.716   5.326  2.3423  0.2083  0.8883
 2162SOL     OW 7926   3.523   5.268   4.451  0.3404 -0.3579  0.3480
 2162SOL    HW1 7927   3.586   5.316   4.505  2.2919 -1.3997 -0.8748
 2162SOL    HW2 7928   3.521   5.180   4.489  0.1056 -0.5119 -0.0120
 2163SOL     OW 7929   7.965   6.424   1.077  0.0677  0.5626  0.3438
 2163SOL    HW1 7930   7.875   6.415   1.044  0.5768  0.2236 -1.0263
 2163SOL    HW2 7931   7.962   6.385   1.164 -0.2219 -3.4118 -1.2167
 2164SOL     OW 7932   5.383   1.894   3.323 -0.7109  0.2399 -0.2042
 2164SOL    HW1 7933   5.403   1.968   3.380  4.2001  0.2478 -1.4940
 2164SOL    HW2 7934   5.349   1.934   3.243 -0.1422  0.9366 -0.1077
 2165SOL     OW 7935   4.591   7.092  11.290 -0.1210 -0.1415  0.0130
 2165SOL    HW1 7936   4.648   7.015  11.295 -0.0179 -0.2530 -2.0126
 2165SOL    HW2 7937   4.504   7.059  11.313  0.1923 -0.5237  0.6670
 2166SOL     OW 7938   7.652   1.897   9.439 -0.5400  0.3339  0.5255
 2166SOL    HW1 7939   7.643   1.901   9.344 -0.4003 -0.2014  0.4875
 2166SOL    HW2 7940   7.681   1.808   9.457 -3.6607 -0.6161  1.3244
 2167SOL     OW 7941   6.730   6.634   9.593 -0.3352 -0.1782 -0.2410
 2167SOL    HW1 7942   6.813   6.642   9.545 -0.3664  2.2736 -0.0080
 2167SOL    HW2 7943   6.718   6.540   9.604  2.5612 -0.6351 -0.0537
 2168SOL     OW 7944   1.576   2.697  10.601 -0.5333  0.4755 -0.1345
 2168SOL    HW1 7945   1.626   2.619  10.623 -0.7359  0.4920  0.3865
 2168SOL    HW2 7946   1.576   2.750  10.680 -2.1586  0.0502  0.2000
 2169SOL     OW 7947   1.423   3.753   1.376  0.0343  0.6229  0.1815
 2169SOL    HW1 7948   1.375   3.822   1.329 -0.1742  0.0264 -0.4987
 2169SOL    HW2 7949   1.515   3.774   1.361  0.1085  2.7256  2.8537
 2170SOL     OW 7950   3.939   0.417   4.837  0.9953 -0.0315 -0.0426
 2170SOL    HW1 7951   3.863   0.359   4.844 -0.5764  1.7344 -1.4056
 2170SOL    HW2 7952   4.014   0.357   4.828 -0.4928 -1.8705 -1.0146
 2171SOL     OW 7953   2.258   4.226   3.942 -0.2219 -0.6096 -0.6594
 2171SOL    HW1 7954   2.264   4.302   4.000  2.5851 -0.6174 -0.7723
 2171SOL    HW2 7955   2.287   4.259   3.857  2.0796 -1.9155 -0.4711
 2172SOL     OW 7956   4.337   6.406   4.910  0.2818 -0.4548  0.0369
 2172SOL    HW1 7957   4.271   6.420   4.842  2.0435 -0.1829 -1.6934
 2172SOL    HW2 7958   4.390   6.333   4.878  0.0380 -1.5887  2.0510
 2173SOL     OW 7959   2.845   1.693   9.327 -0.2954  0.0019 -0.0630
 2173SOL    HW1 7960   2.845   1.789   9.330  2.1984  0.1103 -1.0051
 2173SOL    HW2 7961   2.860   1.671   9.235  1.0481 -1.2267  0.4075
 2174SOL     OW 7962   5.687   4.995   2.139 -0.4399  0.4883  0.4720
 2174SOL    HW1 7963   5.782   4.995   2.140 -0.3030 -0.4530 -2.5348
 2174SOL    HW2 7964   5.662   4.906   2.163 -0.4298  0.0977 -0.9047
 2175SOL     OW 7965   1.992   7.205   3.659 -0.3354  0.1667  0.6300
 2175SOL    HW1 7966   2.031   7.172   3.578  0.2127 -0.1156  1.0058
 2175SOL    HW2 7967   1.961   7.293   3.636  1.2962  0.7643  0.5328
 2176SOL     OW 7968   7.573   0.683   6.435 -0.6347 -0.8818  0.5928
 2176SOL    HW1 7969   7.579   0.635   6.353  0.7635 -1.2810  0.9055
 2176SOL    HW2 7970   7.534   0.767   6.411  0.6781 -0.5954 -0.6455
 2177SOL     OW 7971   4.775   7.502   1.679 -0.2547  0.0433 -0.6318
 2177SOL    HW1 7972   4.781   7.449   1.600 -0.9813 -1.1374  0.0794
 2177SOL    HW2 7973   4.799   7.443   1.750 -2.9455  0.0282  0.3959
 2178SOL     OW 7974   1.938   5.059  10.511 -0.1720 -0.0182  0.1784
 2178SOL    HW1 7975   1.933   5.075  10.605 -0.0165  0.1816  0.1534
 2178SOL    HW2 7976   1.917   4.967  10.501 -0.2261 -0.0311  0.4061
 2179SOL     OW 7977   4.111   4.015  10.704 -0.3539 -0.5179 -0.2717
 2179SOL    HW1 7978   4.026   4.056  10.685 -0.9659 -1.3116  0.7065
 2179SOL    HW2 7979   4.131   4.042  10.793  0.6187 -0.0390 -0.6167
 2180SOL     OW 7980   1.027   2.768   6.298  0.2585  0.8954  0.4667
 2180SOL    HW1 7981   1.020   2.673   6.291 -1.3481  1.0186  0.0280
 2180SOL    HW2 7982   1.114   2.788   6.264  0.2299 -0.3362 -0.4115
 2181SOL     OW 7983   2.958   2.282   3.116  0.6458  0.0566  0.0268
 2181SOL    HW1 7984   3.035   2.246   3.072 -0.0151 -0.3654 -0.8214
 2181SOL    HW2 7985   2.927   2.211   3.172 -0.7444 -0.8376 -1.7570
 2182SOL     OW 7986   2.747   6.550   0.413 -0.0955 -0.1322  0.8021
 2182SOL    HW1 7987   2.788   6.561   0.499  0.1986 -1.4918  0.8591
 2182SOL    HW2 7988   2.657   6.579   0.425  0.5906  2.1295  0.8902
 2183SOL     OW 7989   6.916   7.690   0.267 -0.0856 -0.2544  0.3552
 2183SOL    HW1 7990   6.972   7.612   0.267  0.7294  0.2788  1.5678
 2183SOL    HW2 7991   6.896   7.704   0.360 -0.6562  0.6711  0.1036
 2184SOL     OW 7992   1.711   2.751   3.917  0.2313 -0.7232  0.2345
 2184SOL    HW1 7993   1.805   2.732   3.910  0.2887 -0.2744 -0.2278
 2184SOL    HW2 7994   1.673   2.712   3.839  0.4504  1.6127 -1.1441
 2185SOL     OW 7995   2.124   1.864  10.184 -0.2040  0.0728 -1.0475
 2185SOL    HW1 7996   2.142   1.780  10.227  1.2108  0.2878 -1.1780
 2185SOL    HW2 7997   2.086   1.840  10.100 -0.2627 -0.4231 -0.8876
 2186SOL     OW 7998   6.738   4.772   6.988 -0.1306 -0.2857  0.0181
 2186SOL    HW1 7999   6.771   4.704   7.047 -2.7185 -1.4679  0.2343
 2186SOL    HW2 8000   6.719   4.847   7.046  2.1164  0.4652 -0.1305
 2187SOL     OW 8001   6.922   7.960   6.684  0.1119 -0.4152  0.1378
 2187SOL    HW1 8002   6.974   8.034   6.653 -0.1656 -0.7001 -1.0485
 2187SOL    HW2 8003   6.868   7.996   6.754  1.0976  0.1370  0.6401
 2188SOL     OW 8004   0.841   6.085   3.849 -0.0627 -0.0482  0.2649
 2188SOL    HW1 8005   0.901   6.159   3.848 -0.3490  0.1986 -1.7159
 2188SOL    HW2 8006   0.878   6.023   3.786  1.1520 -2.4806  3.1218
 2189SOL     OW 8007   7.462   0.410  11.724  0.0045  0.0659  0.4498
 2189SOL    HW1 8008   7.522   0.471  11.767  0.4025 -0.1645  0.2313
 2189SOL    HW2 8009   7.382   0.460  11.710 -1.0074 -0.4602  3.5228
 2190SOL     OW 8010   6.807   4.873  11.158 -0.0265  0.0870 -0.4376
 2190SOL    HW1 8011   6.717   4.906  11.151 -0.1674 -0.4872 -1.7913
 2190SOL    HW2 8012   6.857   4.930  11.099  0.0382 -1.0412 -1.5019
 2191SOL     OW 8013   2.765   4.017   1.640  0.4715  0.4575  1.0720
 2191SOL    HW1 8014   2.817   4.069   1.579 -0.2625  0.3085  0.2985
 2191SOL    HW2 8015   2.786   3.926   1.618 -1.1159  0.3538 -0.1947
 2192SOL     OW 8016   2.651   4.799   0.581 -0.1537 -0.1915  0.0753
 2192SOL    HW1 8017   2.711   4.865   0.546  0.2096 -1.4708 -1.8706
 2192SOL    HW2 8018   2.566   4.844   0.583  0.5280  1.1260  1.3329
 2193SOL     OW 8019   5.002   1.769  11.148  0.2014 -0.8271  0.4465
 2193SOL    HW1 8020   4.943   1.833  11.189 -0.4399 -0.5847 -0.8011
 2193SOL    HW2 8021   5.089   1.808  11.158  0.0479 -0.7330  1.4795
 2194SOL     OW 8022   4.190   1.076   1.723  0.1789 -0.0712 -0.6260
 2194SOL    HW1 8023   4.252   1.136   1.681  0.2529 -0.0614 -0.5063
 2194SOL    HW2 8024   4.203   0.992   1.679  1.8769 -0.6634  0.8583
 2195SOL     OW 8025   1.364   0.088   3.213 -0.3378 -0.2329  0.2316
 2195SOL    HW1 8026   1.331   0.178   3.211  0.6967  0.1749  0.9499
 2195SOL    HW2 8027   1.285   0.034   3.203 -1.1353  0.7196  1.1327
 2196SOL     OW 8028   2.035   3.536   3.044 -0.0985  0.1641  0.1674
 2196SOL    HW1 8029   2.021   3.445   3.019 -0.3823  0.7092 -1.8632
 2196SOL    HW2 8030   2.071   3.577   2.965 -3.8815  2.7060 -0.4820
 2197SOL     OW 8031   3.160   4.005   9.427  0.3092 -0.2547  0.1367
 2197SOL    HW1 8032   3.113   4.088   9.415 -1.3471 -1.1152  0.3551
 2197SOL    HW2 8033   3.188   3.980   9.339  1.4560  0.8676  0.1592
 2198SOL     OW 8034   1.309   7.102   8.956 -0.0522  0.0474 -0.1863
 2198SOL    HW1 8035   1.290   7.066   9.043  1.1063 -0.0081  0.0579
 2198SOL    HW2 8036   1.262   7.185   8.953 -0.4341 -0.1496  0.3380
 2199SOL     OW 8037   1.405   0.635  12.307 -0.4877 -0.0789 -0.4864
 2199SOL    HW1 8038   1.316   0.600  12.314 -0.5680  0.2249  0.0009
 2199SOL    HW2 8039   1.426   0.666  12.395 -0.4615  1.2094 -0.9280
 2200SOL     OW 8040   1.744   4.115   3.446  0.1509  0.7519  0.0152
 2200SOL    HW1 8041   1.775   4.122   3.536 -0.7618  1.8559  0.2610
 2200SOL    HW2 8042   1.649   4.119   3.453  0.0888  3.6931 -1.1699
 2201SOL     OW 8043   3.707   5.460   8.643  0.2529  0.6478  0.2787
 2201SOL    HW1 8044   3.757   5.434   8.565 -1.2943 -0.8107 -0.2842
 2201SOL    HW2 8045   3.765   5.442   8.716  0.7840 -0.4349 -0.3859
 2202SOL     OW 8046   6.814   4.255   2.137  0.3435 -0.0081  0.1799
 2202SOL    HW1 8047   6.733   4.231   2.183  0.1662 -0.3757 -0.3188
 2202SOL    HW2 8048   6.785   4.306   2.061  0.6616  0.9751  0.6948
 2203SOL     OW 8049   1.486   1.696   4.024 -0.0009  0.1770  0.0644
 2203SOL    HW1 8050   1.571   1.657   4.006  0.6321  0.7557  1.6080
 2203SOL    HW2 8051   1.500   1.790   4.018 -0.8394  0.2552 -0.8822
 2204SOL     OW 8052   5.635   6.980  11.506  0.4301 -0.4008 -0.3551
 2204SOL    HW1 8053   5.677   7.036  11.441 -0.2281 -0.1182 -0.5361
 2204SOL    HW2 8054   5.638   6.892  11.468  0.4289 -0.3040 -0.5759
 2205SOL     OW 8055   7.517   0.444  12.314 -0.3080  0.7076  0.2990
 2205SOL    HW1 8056   7.434   0.453  12.361  0.4165  1.2674  1.5286
 2205SOL    HW2 8057   7.518   0.519  12.254 -1.8005 -0.6883 -1.6048
 2206SOL     OW 8058   7.139   6.982  11.369 -0.1475 -0.1178  0.0730
 2206SOL    HW1 8059   7.229   6.959  11.394  0.5183 -1.1072 -2.8023
 2206SOL    HW2 8060   7.142   7.077  11.357  1.0399 -0.2994 -1.5264
 2207SOL     OW 8061   6.282   6.907   9.431 -0.4524  0.0868  0.0062
 2207SOL    HW1 8062   6.254   6.850   9.359 -0.3217  0.1009 -0.0565
 2207SOL    HW2 8063   6.236   6.873   9.507 -1.2344  0.5863 -0.2419
 2208SOL     OW 8064   6.324   2.056   5.191 -0.1522 -0.2119 -0.0391
 2208SOL    HW1 8065   6.325   2.036   5.285  1.0848 -1.1561 -0.2287
 2208SOL    HW2 8066   6.416   2.054   5.165 -0.5232 -0.6875 -1.4036
 2209SOL     OW 8067   6.294   4.474   0.394  0.2721  0.5420  0.5648
 2209SOL    HW1 8068   6.255   4.555   0.426 -1.5200  0.4030 -1.0565
 2209SOL    HW2 8069   6.271   4.409   0.461  0.0923  1.0115  0.9675
 2210SOL     OW 8070   6.113   2.804   5.593  0.0084 -0.1206  0.1466
 2210SOL    HW1 8071   6.199   2.842   5.576  0.2939 -0.1542  1.4187
 2210SOL    HW2 8072   6.073   2.862   5.657 -0.6303 -0.5097  0.1087
 2211SOL     OW 8073   4.808   0.440   1.044  0.0540 -0.1364  0.4776
 2211SOL    HW1 8074   4.807   0.361   0.989 -1.3150  1.0779 -1.3551
 2211SOL    HW2 8075   4.736   0.493   1.011  0.2554  1.4292  2.3876
 2212SOL     OW 8076   5.921   5.325   0.024 -0.6501 -0.0665 -0.0344
 2212SOL    HW1 8077   5.853   5.349   0.087 -1.3630 -0.5989 -0.5746
 2212SOL    HW2 8078   6.001   5.364   0.058 -0.9339 -0.6969  1.4191
 2213SOL     OW 8079   2.781   6.745   5.214  0.0010  0.0505 -0.1835
 2213SOL    HW1 8080   2.706   6.749   5.156  0.1778 -0.3709 -0.4485
 2213SOL    HW2 8081   2.784   6.830   5.257  0.0959  0.5058 -1.0713
 2214SOL     OW 8082   0.312   7.686   5.976  0.6798  0.1475 -0.6332
 2214SOL    HW1 8083   0.296   7.758   5.916  0.0952 -0.1856 -0.8881
 2214SOL    HW2 8084   0.238   7.627   5.964  0.5967  0.0227  0.3509
 2215SOL     OW 8085   1.698   2.895  11.245 -0.1503 -0.2266 -0.1543
 2215SOL    HW1 8086   1.697   2.805  11.213 -0.8510  0.2627 -1.5761
 2215SOL    HW2 8087   1.738   2.945  11.174 -0.5210  0.7043  0.2847
 2216SOL     OW 8088   6.340   1.466   0.004 -0.7286  0.3596  0.2542
 2216SOL    HW1 8089   6.434   1.482  -0.007 -0.6581  0.7732  1.3350
 2216SOL    HW2 8090   6.328   1.375  -0.025  0.2752 -0.1994  1.4948
 2217SOL     OW 8091   0.837   0.649   9.510  0.1605  0.2887 -0.6617
 2217SOL    HW1 8092   0.859   0.610   9.425  0.2580 -0.5344 -0.2670
 2217SOL    HW2 8093   0.922   0.672   9.548  0.3530 -1.9070  0.3978
 2218SOL     OW 8094   6.417   5.448   9.999 -0.3864 -0.0490  0.4831
 2218SOL    HW1 8095   6.459   5.385  10.057 -0.4000 -1.0807 -0.5927
 2218SOL    HW2 8096   6.487   5.475   9.939 -1.1503 -1.6742 -1.2345
 2219SOL     OW 8097   3.477   5.764   3.780 -0.7227  0.0959  0.5102
 2219SOL    HW1 8098   3.473   5.777   3.685  0.2186 -0.0729  0.4334
 2219SOL    HW2 8099   3.470   5.851   3.817  3.5008  0.8134  0.0884
 2220SOL     OW 8100   2.858   2.772  10.992  0.9713  0.4043 -0.4332
 2220SOL    HW1 8101   2.866   2.681  11.022 -1.2716 -0.4902 -2.2724
 2220SOL    HW2 8102   2.948   2.802  10.981  1.8268 -2.4332 -2.1053
 2221SOL     OW 8103   1.947   4.674   5.863 -0.6768 -0.8895 -0.1676
 2221SOL    HW1 8104   1.976   4.720   5.942 -2.7840 -0.5934  0.4795
 2221SOL    HW2 8105   2.022   4.621   5.838  0.0899 -0.9244  1.9773
 2222SOL     OW 8106   2.151   5.842   5.999  0.6837 -0.1198 -0.2960
 2222SOL    HW1 8107   2.228   5.898   5.991  0.0039  0.8325 -0.3960
 2222SOL    HW2 8108   2.122   5.854   6.090 -0.1584  0.6461 -0.6527
 2223SOL     OW 8109   5.077   1.815  11.985 -0.5962  0.2367  0.2278
 2223SOL    HW1 8110   5.031   1.898  11.985 -0.9352  0.0606 -0.5869
 2223SOL    HW2 8111   5.012   1.751  11.956 -0.1624 -0.2029  0.2049
 2224SOL     OW 8112   5.609   0.889  11.729 -0.0723  0.4478 -0.2780
 2224SOL    HW1 8113   5.627   0.978  11.759  0.0802  0.2244  0.2872
 2224SOL    HW2 8114   5.672   0.834  11.775 -2.0800 -0.3427  1.7135
 2225SOL     OW 8115   3.553   3.335   5.265 -0.5384  0.0416 -0.0946
 2225SOL    HW1 8116   3.498   3.307   5.191 -0.3447 -0.8433  0.0812
 2225SOL    HW2 8117   3.615   3.398   5.226 -1.6576  1.0487 -0.2930
 2226SOL     OW 8118   5.657   2.528   3.019 -0.0904  0.6501 -0.0643
 2226SOL    HW1 8119   5.569   2.491   3.018  0.2467 -0.3452  1.9020
 2226SOL    HW2 8120   5.645   2.621   3.038 -0.7069  0.4086  0.7649
 2227SOL     OW 8121   2.493   2.048   8.562  0.3660  0.2299 -0.2184
 2227SOL    HW1 8122   2.407   2.049   8.521  0.8268 -0.5547 -1.2622
 2227SOL    HW2 8123   2.478   2.079   8.651 -1.1085 -0.5262 -0.1806
 2228SOL     OW 8124   0.304   1.344   5.468  0.0476  0.2203 -0.1571
 2228SOL    HW1 8125   0.395   1.372   5.479  0.6348 -2.1627  2.2007
 2228SOL    HW2 8126   0.309   1.249   5.460 -2.2681 -0.0169  0.4695
 2229SOL     OW 8127   4.749   5.427   5.171  0.2448 -0.4379  0.0450
 2229SOL    HW1 8128   4.806   5.504   5.171  1.3724 -1.2265 -1.1509
 2229SOL    HW2 8129   4.782   5.373   5.099 -2.1810 -0.8228 -0.8885
 2230SOL     OW 8130   3.353   3.019   1.219  0.1147  0.2083 -0.5188
 2230SOL    HW1 8131   3.396   2.941   1.254  0.2329 -0.0136 -1.1345
 2230SOL    HW2 8132   3.400   3.037   1.137 -1.5684 -0.6159 -1.7176
 2231SOL     OW 8133   6.424   5.727  10.001 -0.3846  0.4752 -0.3556
 2231SOL    HW1 8134   6.405   5.634   9.986  0.5951  0.5618 -2.5026
 2231SOL    HW2 8135   6.360   5.773   9.948 -0.0722  1.0071 -0.2745
 2232SOL     OW 8136   6.206   2.777  10.136  0.2834 -0.1278 -0.2310
 2232SOL    HW1 8137   6.116   2.808  10.134 -0.5176 -2.2435  0.5362
 2232SOL    HW2 8138   6.247   2.828  10.206  0.1896  1.9549 -1.6018
 2233SOL     OW 8139   5.612   4.651   3.908 -0.1760  0.3225  0.3718
 2233SOL    HW1 8140   5.626   4.688   3.995 -0.8348 -0.6947  0.9279
 2233SOL    HW2 8141   5.603   4.557   3.923 -0.4297  0.1437 -0.7871
 2234SOL     OW 8142   2.140   1.961   2.635 -0.2702  0.1667 -0.5500
 2234SOL    HW1 8143   2.130   1.866   2.642 -0.4674  0.1776 -0.6691
 2234SOL    HW2 8144   2.153   1.991   2.725 -2.0977  0.2317 -0.2561
 2235SOL     OW 8145   7.296   3.761   0.288 -0.0125  0.1415  0.4524
 2235SOL    HW1 8146   7.334   3.677   0.260  3.2502  2.0385 -1.4917
 2235SOL    HW2 8147   7.228   3.779   0.223  2.7198  1.1837 -2.3858
 2236SOL     OW 8148   4.929   4.355   8.821  0.1653  0.0180  0.7721
 2236SOL    HW1 8149   4.973   4.270   8.828 -0.0954  0.0220  3.0986
 2236SOL    HW2 8150   4.892   4.356   8.732  0.2473 -2.2432  0.6741
 2237SOL     OW 8151   4.717   1.083   8.993  0.4177 -0.1343 -0.1606
 2237SOL    HW1 8152   4.708   1.057   8.901  1.0852 -0.6279 -0.0933
 2237SOL    HW2 8153   4.766   1.012   9.033  1.8497  0.9869  0.1581
 2238SOL     OW 8154   1.604   3.618  10.996  0.0950 -0.5672  0.2556
 2238SOL    HW1 8155   1.696   3.641  11.010  0.4157 -1.7772  0.3124
 2238SOL    HW2 8156   1.579   3.569  11.075 -0.7343  0.1090  0.4295
 2239SOL     OW 8157   5.697   5.853  10.177  0.2761  0.0643  0.2367
 2239SOL    HW1 8158   5.692   5.874  10.083  0.5687  1.0955  0.4419
 2239SOL    HW2 8159   5.622   5.796  10.192 -0.1263  0.3762 -0.5097
 2240SOL     OW 8160   4.542   0.865  11.843  0.0135 -0.4074 -0.5540
 2240SOL    HW1 8161   4.626   0.840  11.882 -0.4298  0.3175  0.9166
 2240SOL    HW2 8162   4.478   0.856  11.914 -0.8612  0.7157 -1.1652
 2241SOL     OW 8163   6.271   5.009   5.343  0.0132  0.2845  0.4259
 2241SOL    HW1 8164   6.346   5.067   5.333 -0.3556  0.4429 -2.0977
 2241SOL    HW2 8165   6.287   4.963   5.426  1.9249  1.6385  0.8778
 2242SOL     OW 8166   2.101   7.008   0.614  0.0873 -0.1376 -0.1432
 2242SOL    HW1 8167   2.067   6.946   0.679 -0.6068  0.1546 -0.2188
 2242SOL    HW2 8168   2.194   7.013   0.632 -0.3283  1.2388  1.9679
 2243SOL     OW 8169   5.434   3.221   9.942  0.0634 -0.7676 -0.0256
 2243SOL    HW1 8170   5.339   3.226   9.942 -0.0401 -2.2042  1.1578
 2243SOL    HW2 8171   5.462   3.276  10.015  0.2881  0.9442 -1.3179
 2244SOL     OW 8172   2.424   0.331   4.834  0.2027  0.2127 -0.1064
 2244SOL    HW1 8173   2.405   0.238   4.846 -0.3615 -0.0492 -2.5743
 2244SOL    HW2 8174   2.509   0.343   4.876 -0.2814 -1.1002  1.3623
 2245SOL     OW 8175   2.268   3.669   9.126 -0.0701  0.0680 -0.2092
 2245SOL    HW1 8176   2.336   3.605   9.146 -0.7016 -0.1165  1.5065
 2245SOL    HW2 8177   2.308   3.754   9.143 -0.1782 -0.0313  0.5780
 2246SOL     OW 8178   6.130   3.998   1.111  0.3352 -0.2076  0.0641
 2246SOL    HW1 8179   6.127   4.093   1.099  0.9448 -0.2739 -0.7672
 2246SOL    HW2 8180   6.046   3.967   1.078  1.1196 -0.1661 -2.1957
 2247SOL     OW 8181   5.672   4.693  11.684  0.0552  0.0769 -0.1004
 2247SOL    HW1 8182   5.621   4.724  11.609  1.7341 -0.3750 -1.4910
 2247SOL    HW2 8183   5.706   4.772  11.724  0.1023  0.2787 -0.5325
 2248SOL     OW 8184   7.046   1.014   4.004 -0.0957  0.2102  0.0735
 2248SOL    HW1 8185   6.995   1.019   4.084  1.9486  2.0921  1.3758
 2248SOL    HW2 8186   7.100   0.936   4.014 -0.2112  0.1588  0.2945
 2249SOL     OW 8187   0.556   2.740   3.619 -1.0501  0.6386 -0.1797
 2249SOL    HW1 8188   0.594   2.655   3.596 -1.7678  0.0159  0.8612
 2249SOL    HW2 8189   0.461   2.725   3.618 -1.1681  1.2068  0.7978
 2250SOL     OW 8190   0.756   2.563  11.445 -0.1584 -0.1080 -0.7000
 2250SOL    HW1 8191   0.773   2.474  11.476 -0.5744 -0.4292 -1.3725
 2250SOL    HW2 8192   0.824   2.578  11.380 -0.7833 -0.3795 -1.4320
 2251SOL     OW 8193   6.426   5.694   0.638  0.4666  0.5884  0.1549
 2251SOL    HW1 8194   6.389   5.782   0.635 -2.7410 -0.5394  1.8727
 2251SOL    HW2 8195   6.364   5.640   0.589  0.7326 -1.1533  1.6213
 2252SOL     OW 8196   7.474   2.162   6.218  0.8472 -0.9833  0.6244
 2252SOL    HW1 8197   7.457   2.244   6.171  2.0338 -0.8415  0.4171
 2252SOL    HW2 8198   7.399   2.152   6.276  0.2748 -0.1851  0.0482
 2253SOL     OW 8199   3.962   1.325   3.758 -0.2729  0.1395 -0.0321
 2253SOL    HW1 8200   3.887   1.268   3.746 -0.7840  1.1035 -1.7747
 2253SOL    HW2 8201   3.999   1.299   3.843 -1.2926 -1.7835 -0.1220
 2254SOL     OW 8202   5.119   1.728   9.005  0.2287  0.3594  0.4332
 2254SOL    HW1 8203   5.072   1.799   8.961 -2.3553 -0.5699  1.5110
 2254SOL    HW2 8204   5.077   1.721   9.090  2.5738 -0.3998  1.6022
 2255SOL     OW 8205   2.938   5.101  12.334  0.2928  0.6723 -0.1188
 2255SOL    HW1 8206   2.868   5.162  12.308 -0.7712 -0.6895 -0.5291
 2255SOL    HW2 8207   2.937   5.033  12.267  0.1727 -0.8074  1.3204
 2256SOL     OW 8208   1.093   6.409  10.754  0.0119  0.5478  0.2882
 2256SOL    HW1 8209   1.146   6.436  10.679  0.3069  0.4885  0.4740
 2256SOL    HW2 8210   1.081   6.489  10.805  0.8987  0.3396  0.8448
 2257SOL     OW 8211   4.169   7.238  11.435  0.7515  0.0265 -0.0264
 2257SOL    HW1 8212   4.172   7.174  11.364  0.0410  0.8613 -0.8274
 2257SOL    HW2 8213   4.223   7.311  11.406  1.9448 -0.3775  1.0875
 2258SOL     OW 8214   0.292   3.451  11.443 -0.2397 -0.1930  0.0480
 2258SOL    HW1 8215   0.383   3.450  11.412 -0.3375 -0.6345 -0.2364
 2258SOL    HW2 8216   0.293   3.509  11.518  0.4273 -0.7511  0.4811
 2259SOL     OW 8217   6.427   2.021   9.679  0.2252  1.0031  0.0572
 2259SOL    HW1 8218   6.362   2.077   9.720 -1.1552  0.6117 -1.4775
 2259SOL    HW2 8219   6.498   2.080   9.654 -1.4843  2.2742 -2.1162
 2260SOL     OW 8220   5.397   1.703   5.351 -0.0515  0.0795 -0.4275
 2260SOL    HW1 8221   5.404   1.720   5.257 -1.9831 -0.9644 -0.8186
 2260SOL    HW2 8222   5.470   1.644   5.370  0.4694  0.4525 -1.2245
 2261SOL     OW 8223   6.918   5.151   5.470  0.0458  0.0773 -0.7433
 2261SOL    HW1 8224   6.987   5.131   5.407 -0.1929 -0.9676 -0.6797
 2261SOL    HW2 8225   6.837   5.122   5.428 -0.1804 -0.1067 -0.1864
 2262SOL     OW 8226   4.627   5.238   7.574  0.2783  0.4039 -0.5663
 2262SOL    HW1 8227   4.557   5.192   7.620 -0.7926  2.1757 -0.3730
 2262SOL    HW2 8228   4.635   5.190   7.491 -0.5382 -0.3495 -0.2298
 2263SOL     OW 8229   3.751   4.621   7.735  0.5765  0.2132 -0.5176
 2263SOL    HW1 8230   3.785   4.674   7.807  0.5913 -0.2481 -0.1817
 2263SOL    HW2 8231   3.714   4.544   7.777 -0.6887  0.5865 -0.8791
 2264SOL     OW 8232   3.182   3.600   0.196  0.3180  0.1318  0.0682
 2264SOL    HW1 8233   3.135   3.605   0.113  0.9407  0.3913 -0.2757
 2264SOL    HW2 8234   3.256   3.541   0.178  0.1989 -0.1812  0.5680
 2265SOL     OW 8235   3.347   7.929  10.338  0.3384 -0.3442  0.4357
 2265SOL    HW1 8236   3.425   7.948  10.390 -0.2355  0.2847  1.0759
 2265SOL    HW2 8237   3.285   7.998  10.361  0.0380 -0.0751 -1.0289
 2266SOL     OW 8238   6.224   3.279   1.432  0.2374  0.8652 -0.2480
 2266SOL    HW1 8239   6.175   3.216   1.380  0.5888  0.1207  0.2987
 2266SOL    HW2 8240   6.172   3.359   1.429  0.1341  0.7667 -1.5312
 2267SOL     OW 8241   3.673   2.420  11.111  0.3572 -0.0199  0.0117
 2267SOL    HW1 8242   3.662   2.478  11.036 -0.1753 -0.3437 -0.1687
 2267SOL    HW2 8243   3.641   2.470  11.186  1.2988  0.4664  0.0963
 2268SOL     OW 8244   4.390   1.441  12.225 -0.0209  0.1887  0.1270
 2268SOL    HW1 8245   4.423   1.444  12.135 -0.7183 -1.5173 -0.2171
 2268SOL    HW2 8246   4.321   1.508  12.227 -0.0301  0.2095 -0.6126
 2269SOL     OW 8247   6.122   2.988   0.741 -0.2069  0.0268  0.8671
 2269SOL    HW1 8248   6.063   2.926   0.698  0.6577 -0.7366  0.7234
 2269SOL    HW2 8249   6.114   3.069   0.691 -2.5515  0.5791  2.0127
 2270SOL     OW 8250   7.698   3.560  10.767 -0.2190  0.1870 -0.2284
 2270SOL    HW1 8251   7.670   3.469  10.755 -0.9368  0.4255 -0.3611
 2270SOL    HW2 8252   7.685   3.577  10.860  0.2469  0.0526 -0.1323
 2271SOL     OW 8253   5.348   5.527   6.284 -0.4132  0.2226 -0.7087
 2271SOL    HW1 8254   5.363   5.446   6.332 -0.6146  0.2855 -0.5387
 2271SOL    HW2 8255   5.300   5.583   6.345  0.5126  0.8124 -0.4903
 2272SOL     OW 8256   0.255   0.677   7.995 -0.2403 -0.1879  0.1210
 2272SOL    HW1 8257   0.272   0.771   8.000 -0.4184 -0.2150  1.3263
 2272SOL    HW2 8258   0.341   0.639   7.974  0.1519  0.1140  1.1497
 2273SOL     OW 8259   2.465   1.736   3.859 -0.2994 -0.4356 -0.6618
 2273SOL    HW1 8260   2.490   1.825   3.885 -2.2496 -0.2335  0.8025
 2273SOL    HW2 8261   2.456   1.741   3.764  1.4553  0.3888 -0.8253
 2274SOL     OW 8262   7.892   1.722   2.488 -0.2595  0.2637 -0.1860
 2274SOL    HW1 8263   7.861   1.767   2.566 -1.6146  1.0624 -1.1267
 2274SOL    HW2 8264   7.968   1.672   2.517 -0.1742  1.2571  1.4247
 2275SOL     OW 8265   6.236   7.531   4.969  0.1926  0.3515 -0.4371
 2275SOL    HW1 8266   6.277   7.602   5.019 -1.2865  0.2693  0.9615
 2275SOL    HW2 8267   6.230   7.566   4.880  1.1259  1.2675 -0.1697
 2276SOL     OW 8268   6.289   6.737  11.477 -0.3433 -0.5999  0.1869
 2276SOL    HW1 8269   6.201   6.744  11.514 -0.5896  1.5661 -0.6954
 2276SOL    HW2 8270   6.294   6.807  11.412  2.1399 -0.4585  0.4299
 2277SOL     OW 8271   6.176   4.946   5.088 -0.2971 -0.3194 -0.4746
 2277SOL    HW1 8272   6.211   4.948   5.178  0.1347 -2.0516 -0.5697
 2277SOL    HW2 8273   6.254   4.954   5.033 -0.4224 -0.5687 -0.6878
 2278SOL     OW 8274   4.697   2.726   6.323  0.2001 -0.1862  0.2393
 2278SOL    HW1 8275   4.616   2.678   6.340 -0.7987  0.8013 -1.3952
 2278SOL    HW2 8276   4.735   2.683   6.246  0.4909  0.2070  0.1582
 2279SOL     OW 8277   2.578   2.339   4.600  0.3912  0.0842 -0.3698
 2279SOL    HW1 8278   2.488   2.342   4.568  0.6296  1.8697 -1.0038
 2279SOL    HW2 8279   2.583   2.259   4.652 -1.4895 -0.1639 -0.5179
 2280SOL     OW 8280   1.928   6.622   4.504 -0.5302 -0.0220  0.0153
 2280SOL    HW1 8281   2.011   6.616   4.552 -0.8672 -0.6718  0.5346
 2280SOL    HW2 8282   1.912   6.716   4.497 -0.3318  0.0964  0.9574
 2281SOL     OW 8283   1.789   3.161   9.988  0.0356  0.3905  0.0555
 2281SOL    HW1 8284   1.730   3.203   9.925 -0.0453 -1.2597 -1.0284
 2281SOL    HW2 8285   1.763   3.197  10.073 -2.6295 -0.3163 -0.3568
 2282SOL     OW 8286   1.571   7.349   9.171 -0.4709  0.1149  0.2004
 2282SOL    HW1 8287   1.626   7.412   9.217 -0.6974  0.3332  0.1741
 2282SOL    HW2 8288   1.483   7.367   9.202 -1.0677  2.1418 -2.3746
 2283SOL     OW 8289   3.015   3.616   3.479 -0.0609 -0.3275  0.4956
 2283SOL    HW1 8290   3.077   3.688   3.488 -0.2294  0.1491 -1.5512
 2283SOL    HW2 8291   2.945   3.635   3.541 -2.1954  3.6238 -2.6416
 2284SOL     OW 8292   3.877   6.436   5.160  0.6943 -0.1691 -0.1200
 2284SOL    HW1 8293   3.873   6.480   5.245  3.2176 -1.3134  0.6743
 2284SOL    HW2 8294   3.941   6.486   5.110  1.8412 -1.5190 -0.0488
 2285SOL     OW 8295   1.182   1.014   5.130  0.1127 -0.2520  0.2378
 2285SOL    HW1 8296   1.175   0.935   5.075  1.3958  1.1693 -2.1397
 2285SOL    HW2 8297   1.129   1.079   5.084  1.3367  1.0379  0.6043
 2286SOL     OW 8298   0.361   3.909  12.247 -0.0936 -0.1809 -0.4533
 2286SOL    HW1 8299   0.288   3.847  12.245 -1.3463  1.2577 -1.4013
 2286SOL    HW2 8300   0.438   3.854  12.262 -1.0588 -2.0898 -1.9265
 2287SOL     OW 8301   2.403   4.047   0.755 -0.2512  0.4705  0.4398
 2287SOL    HW1 8302   2.396   4.134   0.795  0.2847  0.1056  1.3466
 2287SOL    HW2 8303   2.496   4.039   0.731 -0.8428  1.3940 -2.5775
 2288SOL     OW 8304   3.453   4.999  11.840 -0.7582  0.6878  0.4067
 2288SOL    HW1 8305   3.436   5.075  11.784  0.4793 -0.1573 -1.1955
 2288SOL    HW2 8306   3.375   4.944  11.829 -0.5857  0.5879 -0.4205
 2289SOL     OW 8307   7.290   4.778   5.991 -0.1893 -0.3367  0.0713
 2289SOL    HW1 8308   7.329   4.693   6.009 -0.2585 -0.0626  1.6331
 2289SOL    HW2 8309   7.358   4.841   6.015 -0.5893  0.0761  0.1319
 2290SOL     OW 8310   1.035   0.662  11.317 -0.0898  0.0149  0.4189
 2290SOL    HW1 8311   1.037   0.714  11.397 -1.2065 -1.2254  1.3089
 2290SOL    HW2 8312   1.051   0.572  11.346  2.5514 -0.1114 -1.1730
 2291SOL     OW 8313   5.548   7.525  10.146  0.6937  0.1895 -0.1020
 2291SOL    HW1 8314   5.457   7.516  10.172  0.0065 -0.6055 -2.4676
 2291SOL    HW2 8315   5.592   7.448  10.181 -0.0958 -0.6538 -0.9329
 2292SOL     OW 8316   7.191   2.683  11.563  0.4975  0.0139  0.5916
 2292SOL    HW1 8317   7.263   2.725  11.611 -0.3581  1.2057  0.8688
 2292SOL    HW2 8318   7.145   2.755  11.521 -2.0526 -0.3716  2.4674
 2293SOL     OW 8319   6.859   0.610   1.691  0.3325  0.4793 -0.1911
 2293SOL    HW1 8320   6.919   0.588   1.619  0.2712  2.5317 -0.9434
 2293SOL    HW2 8321   6.916   0.633   1.764  0.4002 -0.8768  0.2081
 2294SOL     OW 8322   6.935   7.697   5.562 -0.8355  0.1504  0.4689
 2294SOL    HW1 8323   6.842   7.710   5.577 -0.8276  1.4009 -0.4626
 2294SOL    HW2 8324   6.969   7.784   5.542  0.2052 -0.5509 -0.9844
 2295SOL     OW 8325   7.287   7.076   0.742  0.2403 -0.0430 -0.0769
 2295SOL    HW1 8326   7.348   7.074   0.668  1.4557 -0.0851  0.8983
 2295SOL    HW2 8327   7.241   6.992   0.737  0.8555 -0.3694 -0.3432
 2296SOL     OW 8328   3.008   4.114   0.736  0.1542  0.0741 -0.7177
 2296SOL    HW1 8329   3.094   4.108   0.694  0.2845  0.2545 -0.4790
 2296SOL    HW2 8330   3.028   4.132   0.828 -0.1644  1.7731 -0.9448
 2297SOL     OW 8331   0.807   4.632   3.498 -0.1098 -0.4055 -0.1247
 2297SOL    HW1 8332   0.873   4.658   3.561  0.3905 -0.3115 -0.6766
 2297SOL    HW2 8333   0.804   4.704   3.434  0.4490 -1.1459 -1.0131
 2298SOL     OW 8334   2.244   0.288  12.047 -0.4057  0.2550  0.0090
 2298SOL    HW1 8335   2.210   0.284  12.136 -0.9857  0.2994 -0.2035
 2298SOL    HW2 8336   2.220   0.204  12.008 -1.7030  0.8856 -0.6308
 2299SOL     OW 8337   4.076   0.253   5.336 -0.0676  0.2719  0.1942
 2299SOL    HW1 8338   4.140   0.183   5.347  0.8545  1.0354 -0.2377
 2299SOL    HW2 8339   4.018   0.221   5.266  1.1607  0.5053 -0.9561
 2300SOL     OW 8340   1.993   1.063  11.300  0.2221  0.3469  0.4648
 2300SOL    HW1 8341   1.901   1.087  11.294  0.1534  0.4015  1.6075
 2300SOL    HW2 8342   1.995   0.968  11.284 -0.2684  0.0058  2.2203
 2301SOL     OW 8343   2.347   2.181   0.689 -0.6683 -0.6817  0.1979
 2301SOL    HW1 8344   2.276   2.197   0.627 -0.4188  0.9851  0.3138
 2301SOL    HW2 8345   2.304   2.174   0.774 -0.9493 -2.4025 -0.0501
 2302SOL     OW 8346   0.942   0.661  11.927 -0.6816 -0.5015  0.0079
 2302SOL    HW1 8347   0.956   0.708  12.010  0.2064  0.0224 -0.4284
 2302SOL    HW2 8348   0.889   0.721  11.875  1.3384  0.5235 -0.9523
 2303SOL     OW 8349   5.834   6.227   7.214  0.5098  0.3404 -0.1818
 2303SOL    HW1 8350   5.811   6.311   7.175 -0.8982 -0.3162 -0.8478
 2303SOL    HW2 8351   5.895   6.249   7.285 -1.7122  2.1984  1.3042
 2304SOL     OW 8352   2.690   7.519   6.658  0.1951 -0.4106  0.0684
 2304SOL    HW1 8353   2.608   7.526   6.608 -0.0557  3.0385  0.7158
 2304SOL    HW2 8354   2.759   7.526   6.592 -0.1306  2.2004 -0.0734
 2305SOL     OW 8355   3.677   4.062   6.287  0.1311 -0.0724 -0.0927
 2305SOL    HW1 8356   3.674   4.057   6.383  2.0781  1.9839  0.1486
 2305SOL    HW2 8357   3.606   4.122   6.264 -0.5029 -0.7631 -0.0175
 2306SOL     OW 8358   6.645   1.009   9.524  0.2879 -0.4672 -0.2494
 2306SOL    HW1 8359   6.727   0.967   9.550  0.9465  0.2755 -1.0778
 2306SOL    HW2 8360   6.585   0.989   9.596  1.1714 -1.0623  0.3535
 2307SOL     OW 8361   5.607   2.286   9.779 -0.0393  0.1846 -0.1659
 2307SOL    HW1 8362   5.529   2.335   9.755 -1.2587 -0.8424  1.4579
 2307SOL    HW2 8363   5.590   2.197   9.747  0.8387  0.1193 -0.4895
 2308SOL     OW 8364   0.749   1.934  12.309  0.1293  0.7401 -0.1764
 2308SOL    HW1 8365   0.664   1.972  12.330  0.5925  1.8050 -0.1866
 2308SOL    HW2 8366   0.805   2.009  12.288  0.4156 -0.0840 -2.6599
 2309SOL     OW 8367   3.753   5.999   9.377 -0.3155 -1.1118  0.3227
 2309SOL    HW1 8368   3.772   5.915   9.336 -2.6420 -0.4023 -2.5802
 2309SOL    HW2 8369   3.737   5.978   9.469 -0.3327 -3.7679 -0.2043
 2310SOL     OW 8370   6.467   1.768  10.995 -0.1263  0.8573  0.1950
 2310SOL    HW1 8371   6.533   1.829  10.963  0.0311  1.6156  1.8828
 2310SOL    HW2 8372   6.415   1.820  11.057 -2.0471  0.1652 -0.7739
 2311SOL     OW 8373   0.422   5.823   0.139 -0.1127  0.2656 -0.1099
 2311SOL    HW1 8374   0.450   5.913   0.121  0.5420 -0.0303 -0.5967
 2311SOL    HW2 8375   0.352   5.833   0.203  1.3279  1.0232  1.4347
 2312SOL     OW 8376   7.879   0.560   8.709 -0.2603  0.2178 -0.3605
 2312SOL    HW1 8377   7.948   0.616   8.671  0.6631 -0.3079  0.4826
 2312SOL    HW2 8378   7.899   0.472   8.677 -0.8040  0.1205 -0.4441
 2313SOL     OW 8379   4.850   7.807  11.885 -0.0487  0.1189  0.0588
 2313SOL    HW1 8380   4.757   7.826  11.881 -0.0662 -0.1851 -1.5276
 2313SOL    HW2 8381   4.858   7.738  11.951 -0.8746  0.4852  0.5552
 2314SOL     OW 8382   5.382   0.484   1.123  0.4868  0.0257 -0.1192
 2314SOL    HW1 8383   5.294   0.501   1.158  0.8844 -0.1387  1.0149
 2314SOL    HW2 8384   5.381   0.523   1.036 -1.3031 -1.5464 -0.9089
 2315SOL     OW 8385   5.132   7.940  10.450 -0.5928  0.4020 -0.3166
 2315SOL    HW1 8386   5.176   7.917  10.368  2.4653  0.3377  1.1853
 2315SOL    HW2 8387   5.145   7.864  10.507 -0.3847  1.4080  1.0353
 2316SOL     OW 8388   0.335   6.883   2.096  0.5152 -0.3909 -0.3526
 2316SOL    HW1 8389   0.295   6.969   2.087 -1.4260 -1.4531 -2.8224
 2316SOL    HW2 8390   0.309   6.854   2.183 -0.7382  0.5997 -0.3652
 2317SOL     OW 8391   6.076   7.165   8.585 -0.3281 -0.0207 -0.1344
 2317SOL    HW1 8392   6.142   7.216   8.539  1.6555 -0.5885  1.9259
 2317SOL    HW2 8393   6.096   7.074   8.562  0.3093 -0.2669  1.2903
 2318SOL     OW 8394   1.175   2.167   0.771 -0.8491  0.3225  0.1991
 2318SOL    HW1 8395   1.195   2.230   0.840  0.6960 -1.0386  1.0747
 2318SOL    HW2 8396   1.089   2.132   0.795  0.1403 -0.9783  2.2072
 2319SOL     OW 8397   2.710   7.475   5.055  0.6184  0.6586 -0.0496
 2319SOL    HW1 8398   2.735   7.471   5.148 -0.5252  0.5503  0.2698
 2319SOL    HW2 8399   2.723   7.386   5.023 -1.1463  0.0950  0.6296
 2320SOL     OW 8400   4.436   0.140   5.710 -0.0702  0.4637 -0.5421
 2320SOL    HW1 8401   4.412   0.172   5.797  0.0693 -1.3248  0.2115
 2320SOL    HW2 8402   4.530   0.124   5.716 -0.3296 -1.2540 -0.4208
 2321SOL     OW 8403   4.189   7.266   8.147 -0.6234 -0.0144 -0.2375
 2321SOL    HW1 8404   4.141   7.238   8.225 -0.9340 -1.1926 -0.8367
 2321SOL    HW2 8405   4.249   7.334   8.179 -1.5918  0.3888  0.7991
 2322SOL     OW 8406   7.234   5.548   2.698 -0.6891  0.2113 -0.1374
 2322SOL    HW1 8407   7.197   5.472   2.743 -4.1635  1.0538 -1.2525
 2322SOL    HW2 8408   7.294   5.510   2.633  0.0274 -1.3125  1.3378
 2323SOL     OW 8409   4.123   7.386  10.217  0.2050  0.4853 -0.0706
 2323SOL    HW1 8410   4.157   7.423  10.135 -0.8930 -0.5238 -1.0205
 2323SOL    HW2 8411   4.035   7.356  10.195  0.9861 -2.7017  0.5944
 2324SOL     OW 8412   7.873   7.156   8.517 -0.0482  0.2710  0.0361
 2324SOL    HW1 8413   7.937   7.122   8.580 -1.3093 -0.7856  0.8021
 2324SOL    HW2 8414   7.800   7.185   8.571 -2.7422 -3.9166 -0.8796
 2325SOL     OW 8415   0.261   1.876   3.547  0.4231  0.1497  0.3859
 2325SOL    HW1 8416   0.332   1.940   3.542  1.2789 -0.7666  0.5505
 2325SOL    HW2 8417   0.305   1.791   3.554 -0.6892 -0.4647  0.2050
 2326SOL     OW 8418   6.675   3.020   9.365 -0.2795 -0.1294  0.1736
 2326SOL    HW1 8419   6.603   2.997   9.306  0.7476 -2.1176 -0.3792
 2326SOL    HW2 8420   6.703   2.937   9.403  2.1799  0.4738 -0.1443
 2327SOL     OW 8421   2.261   3.803   0.049  1.2112 -0.6395 -0.0035
 2327SOL    HW1 8422   2.257   3.813  -0.047 -2.8428 -0.4136  0.0185
 2327SOL    HW2 8423   2.201   3.869   0.082  2.4019 -0.8316  2.7623
 2328SOL     OW 8424   5.671   0.729   9.799  0.4549  0.2324 -0.0432
 2328SOL    HW1 8425   5.590   0.731   9.850  0.7049 -1.8104  0.5363
 2328SOL    HW2 8426   5.673   0.813   9.754 -1.3883  0.8087  0.8406
 2329SOL     OW 8427   6.133   0.177   8.747  0.3586 -0.7529 -0.2553
 2329SOL    HW1 8428   6.223   0.145   8.748  1.5371  2.2444 -0.5438
 2329SOL    HW2 8429   6.104   0.170   8.838  0.6183 -2.3369 -0.2732
 2330SOL     OW 8430   5.641   5.261   0.183  0.1925 -0.1528 -0.2566
 2330SOL    HW1 8431   5.599   5.176   0.172  2.1417 -1.1300 -0.7577
 2330SOL    HW2 8432   5.573   5.325   0.164 -0.7675 -1.6338 -2.0889
 2331SOL     OW 8433   5.568   1.623  10.451 -0.3836  0.3100  0.1787
 2331SOL    HW1 8434   5.535   1.558  10.513  1.5153  1.0285  2.0946
 2331SOL    HW2 8435   5.611   1.571  10.382  0.8353 -0.5548  1.5092
 2332SOL     OW 8436   5.742   3.911   2.221  0.4612 -0.5995 -0.1730
 2332SOL    HW1 8437   5.652   3.903   2.193  0.0265  0.3472  0.8438
 2332SOL    HW2 8438   5.738   3.967   2.299  2.0783  0.9831 -1.1203
 2333SOL     OW 8439   3.275   6.294   9.981  0.4225  0.3922  0.1176
 2333SOL    HW1 8440   3.218   6.325  10.052 -0.8487 -1.8549  0.1834
 2333SOL    HW2 8441   3.221   6.230   9.934  2.4869 -0.8810 -0.6277
 2334SOL     OW 8442   4.811   7.733   8.123 -0.0369 -0.4399  0.7939
 2334SOL    HW1 8443   4.826   7.817   8.078 -2.3371  0.3063  1.3195
 2334SOL    HW2 8444   4.883   7.727   8.186  2.3649 -0.7518 -1.7482
 2335SOL     OW 8445   1.244   3.656   3.916  0.4332  0.4234  0.2169
 2335SOL    HW1 8446   1.259   3.747   3.889  2.5163 -0.2895 -1.2637
 2335SOL    HW2 8447   1.181   3.622   3.852  1.6563  0.1179 -0.8583
 2336SOL     OW 8448   4.294   5.897   6.852  0.4775 -0.6294  0.1615
 2336SOL    HW1 8449   4.271   5.874   6.762  1.1545  1.1377 -0.5096
 2336SOL    HW2 8450   4.236   5.971   6.873 -0.9822 -2.1556  1.8923
 2337SOL     OW 8451   5.773   0.757   1.422 -0.5518  0.4299  0.0926
 2337SOL    HW1 8452   5.696   0.702   1.408 -1.4337  1.3713  1.0285
 2337SOL    HW2 8453   5.779   0.765   1.518 -0.3918  1.8456 -0.0196
 2338SOL     OW 8454   4.426   4.908   4.882  0.0713  0.3834  0.3052
 2338SOL    HW1 8455   4.421   4.904   4.977 -0.6844  1.5506  0.3290
 2338SOL    HW2 8456   4.412   5.000   4.860 -1.4889 -0.1117 -1.0118
 2339SOL     OW 8457   7.124   7.102   2.252 -0.0402  0.6490  0.3468
 2339SOL    HW1 8458   7.117   7.173   2.316 -1.8156 -0.2291  1.1937
 2339SOL    HW2 8459   7.183   7.038   2.293  0.6373  1.1060  0.0918
 2340SOL     OW 8460   4.281   6.962   3.832 -0.1859  0.0521 -0.0728
 2340SOL    HW1 8461   4.324   6.878   3.848  0.4130  0.2382 -0.6424
 2340SOL    HW2 8462   4.318   6.992   3.749 -0.2135  1.0012  0.2494
 2341SOL     OW 8463   0.952   3.089   0.398  0.2093  0.1244  0.2227
 2341SOL    HW1 8464   1.018   3.042   0.346  0.3043  1.2671 -0.7081
 2341SOL    HW2 8465   0.917   3.155   0.339 -1.3108 -0.0200  0.9264
 2342SOL     OW 8466   5.811   1.680   4.141 -0.4947  0.2804 -0.0262
 2342SOL    HW1 8467   5.733   1.664   4.088 -0.3273 -1.3541  0.1732
 2342SOL    HW2 8468   5.883   1.643   4.090 -0.3372 -1.3481  1.2869
 2343SOL     OW 8469   7.108   2.981   6.511 -0.1133 -0.1437 -0.4323
 2343SOL    HW1 8470   7.015   2.964   6.496  0.3549 -1.1152 -2.6849
 2343SOL    HW2 8471   7.112   3.015   6.600 -2.6775  0.4280 -0.4458
 2344SOL     OW 8472   7.908   4.349   3.063 -0.6181 -0.3862  0.2136
 2344SOL    HW1 8473   7.828   4.310   3.099 -0.4532 -0.1640  0.8319
 2344SOL    HW2 8474   7.922   4.428   3.115 -1.1933  0.7812 -1.3048
 2345SOL     OW 8475   2.406   0.170   9.672 -0.4118 -0.1299  0.9419
 2345SOL    HW1 8476   2.381   0.112   9.744 -0.7868 -1.9696 -0.6143
 2345SOL    HW2 8477   2.495   0.198   9.694 -0.5542 -0.5856  2.1569
 2346SOL     OW 8478   4.339   7.227   2.874 -0.7061  0.2362 -0.1809
 2346SOL    HW1 8479   4.376   7.260   2.792 -2.3989 -0.0089 -1.0734
 2346SOL    HW2 8480   4.304   7.141   2.852 -2.2816  0.6774  0.4709
 2347SOL     OW 8481   6.065   1.625   4.269 -0.0976  0.1000 -0.3250
 2347SOL    HW1 8482   6.018   1.707   4.255  1.5326  1.0427 -0.6229
 2347SOL    HW2 8483   6.060   1.579   4.186 -0.6756  0.0785 -0.2806
 2348SOL     OW 8484   3.488   1.968   6.699 -0.0604 -0.1438 -0.0706
 2348SOL    HW1 8485   3.470   1.890   6.647 -1.9200  0.4018 -0.3344
 2348SOL    HW2 8486   3.554   2.016   6.650 -1.3074  0.0327 -1.6511
 2349SOL     OW 8487   2.433   5.831   4.916 -0.1396  0.4169  0.4176
 2349SOL    HW1 8488   2.483   5.860   4.993  0.6258 -0.1968  0.1625
 2349SOL    HW2 8489   2.495   5.779   4.865 -1.0457 -0.3619  0.0797
 2350SOL     OW 8490   4.258   5.394   7.157 -0.7880 -0.2560  0.0245
 2350SOL    HW1 8491   4.253   5.317   7.213  1.5755 -0.1433  0.5194
 2350SOL    HW2 8492   4.187   5.383   7.094 -1.4961 -2.0130  1.0506
 2351SOL     OW 8493   7.406   1.026   9.439  0.3317 -0.4443 -0.0216
 2351SOL    HW1 8494   7.459   0.949   9.418  1.4754  1.1755 -4.0773
 2351SOL    HW2 8495   7.463   1.080   9.494  1.8982 -0.0494 -1.8973
 2352SOL     OW 8496   3.268   2.930   4.422  0.8482  0.1360 -0.9608
 2352SOL    HW1 8497   3.338   2.939   4.486 -0.6153 -2.2657  1.1560
 2352SOL    HW2 8498   3.270   2.838   4.396 -0.5514  0.3642 -2.0392
 2353SOL     OW 8499   3.720   1.190   2.317 -0.1607  0.3913 -0.2261
 2353SOL    HW1 8500   3.769   1.266   2.288 -0.0313 -0.0778 -1.2715
 2353SOL    HW2 8501   3.783   1.137   2.365 -0.4531  1.3227  1.2536
 2354SOL     OW 8502   0.105   3.304   3.430  0.0611 -0.4580  0.6096
 2354SOL    HW1 8503   0.166   3.233   3.450  1.1334  1.1452  3.6554
 2354SOL    HW2 8504   0.022   3.276   3.466  0.1223 -0.7437  0.5311
 2355SOL     OW 8505   2.998   5.544   7.452  0.5826  0.0464 -0.3874
 2355SOL    HW1 8506   2.973   5.576   7.365 -1.3508  0.0146  0.1077
 2355SOL    HW2 8507   2.962   5.609   7.513  1.8140  0.0087  0.4057
 2356SOL     OW 8508   7.577   6.814   1.803  0.2892  0.8142  0.6387
 2356SOL    HW1 8509   7.490   6.836   1.836  0.2467  0.3265  0.8726
 2356SOL    HW2 8510   7.637   6.865   1.857  0.1001  2.1902 -0.4107
 2357SOL     OW 8511   4.930   3.110  11.305 -0.8564 -0.6703 -0.6495
 2357SOL    HW1 8512   4.975   3.067  11.379  0.1399  0.3547 -0.6356
 2357SOL    HW2 8513   4.865   3.046  11.277 -0.7845 -1.3671  0.6729
 2358SOL     OW 8514   6.192   7.217  10.455 -0.2569 -0.1233 -0.1299
 2358SOL    HW1 8515   6.237   7.224  10.371  0.1907 -1.4249 -0.0089
 2358SOL    HW2 8516   6.230   7.141  10.498 -2.2731 -1.0588  0.1461
 2359SOL     OW 8517   2.518   1.345   0.603  0.1112  0.7637  0.1692
 2359SOL    HW1 8518   2.433   1.336   0.647  0.5387  0.9160  1.0293
 2359SOL    HW2 8519   2.528   1.439   0.591  0.3352  0.7722  0.4206
 2360SOL     OW 8520   2.949   6.222  11.267 -0.0384 -0.0960 -0.0789
 2360SOL    HW1 8521   2.891   6.215  11.344 -0.3294  0.5178 -0.2395
 2360SOL    HW2 8522   3.024   6.273  11.297  0.0005 -0.1340 -0.1118
 2361SOL     OW 8523   7.499   4.119   7.517  0.5058 -0.2437  0.0501
 2361SOL    HW1 8524   7.556   4.055   7.473  0.7809  0.7002 -1.0428
 2361SOL    HW2 8525   7.465   4.173   7.445  2.1672  2.3602  1.0483
 2362SOL     OW 8526   7.918   7.424   0.429 -0.2312  0.5809  0.1307
 2362SOL    HW1 8527   7.873   7.464   0.503  0.3020 -0.4430  1.0250
 2362SOL    HW2 8528   8.011   7.429   0.451 -0.0804  0.0031 -0.3321
 2363SOL     OW 8529   2.638   3.696   2.575  0.0091  0.4192 -0.0533
 2363SOL    HW1 8530   2.645   3.791   2.582 -1.3306  0.4664  0.8658
 2363SOL    HW2 8531   2.635   3.679   2.481  1.6997  1.1385 -0.2867
 2364SOL     OW 8532   5.502   4.270   2.842 -0.4589  0.2272  0.1474
 2364SOL    HW1 8533   5.430   4.305   2.790 -1.4632 -0.7037  0.8709
 2364SOL    HW2 8534   5.468   4.267   2.932  0.1378 -1.0683  0.3619
 2365SOL     OW 8535   3.079   6.389   8.070  0.1440  0.5957 -0.3380
 2365SOL    HW1 8536   3.168   6.423   8.085 -0.4592  1.7935  0.6940
 2365SOL    HW2 8537   3.024   6.467   8.072 -0.9333 -0.1230 -1.1164
 2366SOL     OW 8538   7.338   4.243   0.211  0.3126  0.2401 -0.4325
 2366SOL    HW1 8539   7.251   4.208   0.192 -0.3738  0.4336  1.9639
 2366SOL    HW2 8540   7.389   4.167   0.239  0.5156  0.3255 -0.5671
 2367SOL     OW 8541   3.196   6.236   2.421 -0.1303 -0.3534 -0.0634
 2367SOL    HW1 8542   3.222   6.327   2.409 -1.2940 -0.1094 -0.9715
 2367SOL    HW2 8543   3.271   6.185   2.389 -0.4632  0.3228 -2.0977
 2368SOL     OW 8544   2.301   3.380   4.854 -0.1977  0.1788  0.5815
 2368SOL    HW1 8545   2.318   3.460   4.804  0.7356 -0.1369  0.3579
 2368SOL    HW2 8546   2.387   3.355   4.889 -0.7488  0.1274  1.9545
 2369SOL     OW 8547   5.935   0.133   1.615  0.3429 -0.2395  0.4437
 2369SOL    HW1 8548   5.979   0.087   1.543 -1.1852 -0.4739 -0.3890
 2369SOL    HW2 8549   5.892   0.064   1.666 -1.7780  0.1432 -0.6868
 2370SOL     OW 8550   6.221   5.107  10.447  0.5042 -0.1065 -0.1213
 2370SOL    HW1 8551   6.146   5.164  10.462  0.9235 -0.1545  2.8553
 2370SOL    HW2 8552   6.183   5.020  10.433 -0.0261  0.3165 -1.4818
 2371SOL     OW 8553   2.183   7.276  11.146 -0.0212 -0.0685 -0.0652
 2371SOL    HW1 8554   2.125   7.219  11.197 -0.6045 -1.2072 -1.8842
 2371SOL    HW2 8555   2.206   7.223  11.070  2.3048  0.8860 -0.0872
 2372SOL     OW 8556   6.546   4.285   3.123  0.0519  0.1716 -0.2386
 2372SOL    HW1 8557   6.622   4.299   3.068  0.5738  2.7273  0.9947
 2372SOL    HW2 8558   6.473   4.324   3.074 -0.2582 -1.0858 -0.8212
 2373SOL     OW 8559   1.425   6.434   3.813 -0.0308 -0.0089  0.1938
 2373SOL    HW1 8560   1.377   6.460   3.735  1.0321  2.6516  0.3425
 2373SOL    HW2 8561   1.393   6.346   3.833 -0.8942 -0.4483 -2.7496
 2374SOL     OW 8562   2.128   3.553   1.252 -0.5453 -0.3792 -0.3464
 2374SOL    HW1 8563   2.098   3.549   1.343 -0.5326  0.3970 -0.2973
 2374SOL    HW2 8564   2.167   3.467   1.236 -0.7066 -0.5871  0.3253
 2375SOL     OW 8565   4.383   7.371  12.340  1.1099  0.3005  0.2553
 2375SOL    HW1 8566   4.374   7.461  12.310 -1.1529 -0.2018 -0.7428
 2375SOL    HW2 8567   4.392   7.319  12.260  0.8858 -0.5031  0.7328
 2376SOL     OW 8568   7.353   2.760   1.385  0.2215  0.1018 -0.2937
 2376SOL    HW1 8569   7.310   2.820   1.445  0.2197 -0.8082  0.6461
 2376SOL    HW2 8570   7.292   2.685   1.379 -0.0982  0.4424 -1.9526
 2377SOL     OW 8571   4.457   7.918   8.308 -0.8439  0.6503 -0.1594
 2377SOL    HW1 8572   4.548   7.906   8.335 -0.9612  1.9108  0.8856
 2377SOL    HW2 8573   4.426   7.829   8.289  0.4796  0.1655 -0.1526
 2378SOL     OW 8574   1.589   1.813   8.015  0.3964 -0.2403 -0.1116
 2378SOL    HW1 8575   1.557   1.742   7.959 -1.4737  0.5007 -0.0367
 2378SOL    HW2 8576   1.642   1.867   7.957 -0.7073 -0.0241 -0.9611
 2379SOL     OW 8577   0.239   5.990   5.245 -0.0111 -0.0776 -0.0748
 2379SOL    HW1 8578   0.203   6.040   5.318 -1.4247  0.0626 -0.8235
 2379SOL    HW2 8579   0.196   6.027   5.168  0.4874 -1.0691 -0.8538
 2380SOL     OW 8580   2.726   4.899   2.640 -0.0576  0.1484 -0.0140
 2380SOL    HW1 8581   2.736   4.987   2.675 -0.1137 -0.6096  2.0698
 2380SOL    HW2 8582   2.791   4.893   2.570 -1.0183  2.2680 -1.1647
 2381SOL     OW 8583   4.374   5.621  10.712  0.1211 -0.0646  0.2346
 2381SOL    HW1 8584   4.391   5.540  10.663 -0.4130 -0.5990  0.9179
 2381SOL    HW2 8585   4.323   5.675  10.651  0.5311 -0.2092 -0.2478
 2382SOL     OW 8586   6.970   3.215   8.429 -0.0346  0.0507  0.2293
 2382SOL    HW1 8587   6.920   3.295   8.411 -0.6399 -0.5839 -1.0691
 2382SOL    HW2 8588   7.045   3.245   8.480 -0.3644  1.4134 -0.0274
 2383SOL     OW 8589   3.371   6.474   2.545  0.3807  0.8932 -0.0033
 2383SOL    HW1 8590   3.419   6.504   2.468 -1.0348 -1.6697 -2.0469
 2383SOL    HW2 8591   3.416   6.394   2.571 -1.5803 -0.5186 -0.7965
 2384SOL     OW 8592   7.120   5.133   7.321  0.9061 -0.9218 -0.5086
 2384SOL    HW1 8593   7.142   5.042   7.300  0.8116 -1.3806  1.2866
 2384SOL    HW2 8594   7.041   5.127   7.375  1.5225  0.1568  0.5418
 2385SOL     OW 8595   3.655   2.154   8.608 -0.2442  0.3060  0.4018
 2385SOL    HW1 8596   3.654   2.123   8.699 -0.0929  0.9647  0.6376
 2385SOL    HW2 8597   3.575   2.207   8.601 -0.4485 -0.0438  0.0366
 2386SOL     OW 8598   4.668   2.320   5.604  0.0624 -0.4535 -0.3350
 2386SOL    HW1 8599   4.722   2.390   5.568 -1.3322  0.0184 -1.5858
 2386SOL    HW2 8600   4.600   2.365   5.654  1.3533 -1.0726  2.1462
 2387SOL     OW 8601   3.983   7.021   6.856 -0.6534  0.3375 -0.5464
 2387SOL    HW1 8602   3.981   6.945   6.915  0.0833 -1.8698 -3.1448
 2387SOL    HW2 8603   3.934   6.992   6.779  0.8841  1.9421 -2.2147
 2388SOL     OW 8604   2.939   0.705   2.071  0.2553  0.3352 -0.3454
 2388SOL    HW1 8605   2.960   0.614   2.049  2.1181  0.6388  0.0157
 2388SOL    HW2 8606   2.899   0.740   1.991 -1.3923 -1.0211 -0.1824
 2389SOL     OW 8607   0.048   5.423   3.532  0.1215 -0.1730  0.7189
 2389SOL    HW1 8608   0.127   5.413   3.480 -2.5014 -1.6632 -3.4331
 2389SOL    HW2 8609   0.033   5.336   3.571  0.0298 -0.1532  0.7290
 2390SOL     OW 8610   2.262   0.344   6.833 -0.0438  0.0031  0.6741
 2390SOL    HW1 8611   2.257   0.439   6.823  0.5077 -0.0146  0.1580
 2390SOL    HW2 8612   2.216   0.326   6.915  0.3676  0.7783  1.0884
 2391SOL     OW 8613   5.574   0.258   7.529 -0.0101 -0.5657 -0.4776
 2391SOL    HW1 8614   5.534   0.226   7.610  0.7376 -3.0864 -1.0398
 2391SOL    HW2 8615   5.621   0.337   7.557 -2.5839  0.6674  0.8048
 2392SOL     OW 8616   5.030   5.665   4.923 -0.4159  0.4878  0.6198
 2392SOL    HW1 8617   4.997   5.755   4.922  0.6934  0.9213 -1.0277
 2392SOL    HW2 8618   5.090   5.661   4.849  0.1530 -1.4041  1.1356
 2393SOL     OW 8619   7.590   0.878   9.004  0.3035 -0.5395 -0.2998
 2393SOL    HW1 8620   7.621   0.926   8.927 -0.2589  0.3262  0.0053
 2393SOL    HW2 8621   7.669   0.837   9.039  0.9133  0.6267 -0.2476
 2394SOL     OW 8622   1.139   0.366   9.300  0.2519  0.5090  0.2609
 2394SOL    HW1 8623   1.173   0.454   9.288  0.3872  0.5222  0.7286
 2394SOL    HW2 8624   1.213   0.309   9.278 -0.1144  0.4829 -0.9726
 2395SOL     OW 8625   5.303   4.424   2.692 -0.3095  0.4524  0.1838
 2395SOL    HW1 8626   5.210   4.401   2.683 -0.4934  1.7131 -1.8138
 2395SOL    HW2 8627   5.324   4.470   2.611  1.8828  0.8796  0.9296
 2396SOL     OW 8628   5.390   2.734   2.335  0.4172 -0.6456 -1.0412
 2396SOL    HW1 8629   5.415   2.787   2.411  0.3395 -2.2864  0.1722
 2396SOL    HW2 8630   5.397   2.795   2.261 -0.4400  1.2710  0.3616
 2397SOL     OW 8631   0.603   4.220   3.497  0.0473  0.3772 -0.1691
 2397SOL    HW1 8632   0.631   4.133   3.469  0.5779  0.4067  0.2527
 2397SOL    HW2 8633   0.659   4.280   3.449 -0.4775  0.4988 -0.6378
 2398SOL     OW 8634   6.147   6.750   4.017  0.1083 -0.1390  0.0283
 2398SOL    HW1 8635   6.198   6.669   4.012  1.0769  0.3496  1.4083
 2398SOL    HW2 8636   6.197   6.806   4.076 -0.5333  1.4985 -0.9313
 2399SOL     OW 8637   2.287   0.248   1.429 -0.2838  0.1534 -0.1344
 2399SOL    HW1 8638   2.255   0.337   1.413 -0.0197  0.4177  0.7650
 2399SOL    HW2 8639   2.244   0.195   1.362  0.1894  1.0865 -1.2148
 2400SOL     OW 8640   7.170   5.942   2.520  0.4143 -0.5522 -0.5390
 2400SOL    HW1 8641   7.257   5.929   2.484  0.5207 -0.8509 -0.1667
 2400SOL    HW2 8642   7.165   5.883   2.595  1.0942  1.7842  1.4788
 2401SOL     OW 8643   7.438   7.848   7.011  0.4102  0.2989  0.4635
 2401SOL    HW1 8644   7.500   7.911   7.048  0.5466  0.8229 -0.5985
 2401SOL    HW2 8645   7.493   7.783   6.968  0.2451  0.3093  0.2334
 2402SOL     OW 8646   4.018   1.633  10.052 -0.1803 -0.5311 -0.3275
 2402SOL    HW1 8647   4.074   1.710  10.044 -2.4495  1.1039 -1.6123
 2402SOL    HW2 8648   4.007   1.622  10.147  0.5789  0.4332 -0.1082
 2403SOL     OW 8649   2.728   4.339   9.011  0.0128  0.1892 -0.5440
 2403SOL    HW1 8650   2.722   4.387   9.094 -2.1676  0.5525 -0.8511
 2403SOL    HW2 8651   2.758   4.252   9.036 -2.1930 -0.2387  0.9140
 2404SOL     OW 8652   1.256   4.991   4.200 -0.3396 -0.0452  0.3771
 2404SOL    HW1 8653   1.181   5.044   4.174 -0.3235 -0.3580 -0.3028
 2404SOL    HW2 8654   1.320   5.055   4.233 -1.0703  0.1807  1.3852
 2405SOL     OW 8655   7.110   1.854   6.244  0.4165 -0.1581  0.3339
 2405SOL    HW1 8656   7.176   1.786   6.255 -0.1600 -0.7199  0.3893
 2405SOL    HW2 8657   7.027   1.806   6.241  0.0634  0.4848 -0.3588
 2406SOL     OW 8658   5.966   2.711   5.912 -0.4137 -0.1741  0.8166
 2406SOL    HW1 8659   5.967   2.632   5.858  0.6614  0.8579 -0.7420
 2406SOL    HW2 8660   6.036   2.697   5.976 -0.5014 -0.6326  0.8187
 2407SOL     OW 8661   7.925   4.203   6.901 -0.4546 -0.2687  0.3268
 2407SOL    HW1 8662   7.959   4.232   6.985 -1.7393 -1.7430  1.4064
 2407SOL    HW2 8663   8.003   4.197   6.845  0.5332  0.0219  1.6195
 2408SOL     OW 8664   4.616   7.021  10.283 -0.4173  0.7628  0.0194
 2408SOL    HW1 8665   4.634   6.953  10.218 -0.3287  0.5029  0.3107
 2408SOL    HW2 8666   4.671   7.094  10.257 -1.5218  1.2426 -1.0964
 2409SOL     OW 8667   4.460   4.765   2.805  0.1826 -0.2756 -0.3972
 2409SOL    HW1 8668   4.535   4.758   2.745  0.2089  0.0426 -0.3997
 2409SOL    HW2 8669   4.384   4.753   2.750  0.1830  0.5658 -0.5877
 2410SOL     OW 8670   5.786   7.901   3.071  0.3743 -0.4232  0.2047
 2410SOL    HW1 8671   5.813   7.847   3.145  0.2660 -2.0141 -0.8704
 2410SOL    HW2 8672   5.838   7.980   3.079  2.2757 -1.6499  0.5214
 2411SOL     OW 8673   5.897   7.326   2.416 -0.5038 -0.3675  0.5592
 2411SOL    HW1 8674   5.965   7.263   2.441 -0.9769 -1.1696 -0.1535
 2411SOL    HW2 8675   5.831   7.274   2.372 -2.2908  0.1439  2.4720
 2412SOL     OW 8676   1.328   7.607   7.187 -0.4730 -0.2170 -0.1345
 2412SOL    HW1 8677   1.374   7.624   7.105  1.4772 -0.4017  0.8683
 2412SOL    HW2 8678   1.343   7.514   7.204 -2.1148 -0.5445 -0.2671
 2413SOL     OW 8679   0.635   7.391  10.284  0.9026 -1.2434  0.2880
 2413SOL    HW1 8680   0.720   7.406  10.325  1.6602 -2.6415 -0.6770
 2413SOL    HW2 8681   0.621   7.467  10.228  2.4166 -1.7903 -0.9246
 2414SOL     OW 8682   0.289   3.551   8.940 -0.3588 -0.0041 -0.0183
 2414SOL    HW1 8683   0.231   3.571   8.867  0.2271 -0.5314 -0.6423
 2414SOL    HW2 8684   0.230   3.532   9.013 -0.9434  0.9343 -0.2287
 2415SOL     OW 8685   6.671   5.099  11.471 -0.2012  0.2200 -0.3319
 2415SOL    HW1 8686   6.745   5.159  11.473  0.1509 -0.2355  0.5143
 2415SOL    HW2 8687   6.598   5.149  11.508 -0.3668  0.7141 -1.2950
 2416SOL     OW 8688   7.561   5.643   2.766  0.5298  0.3971  0.0500
 2416SOL    HW1 8689   7.530   5.602   2.685  0.8455 -1.6191  0.8911
 2416SOL    HW2 8690   7.521   5.592   2.836  2.2367  0.4751  1.1606
 2417SOL     OW 8691   0.354   1.398  12.215 -0.0732  0.0459 -0.3874
 2417SOL    HW1 8692   0.386   1.488  12.222 -0.0329  0.1213 -1.4220
 2417SOL    HW2 8693   0.414   1.356  12.154 -0.1642 -0.6611  0.0001
 2418SOL     OW 8694   4.472   6.833   8.599 -0.2929  0.6803 -0.3015
 2418SOL    HW1 8695   4.462   6.899   8.667 -1.1889  0.9683 -0.6928
 2418SOL    HW2 8696   4.535   6.870   8.538  0.3697  0.5036  0.2676
 2419SOL     OW 8697   1.838   7.189   5.517  0.1425  0.6888 -0.2122
 2419SOL    HW1 8698   1.842   7.102   5.477  0.9872  0.8964 -0.6095
 2419SOL    HW2 8699   1.852   7.172   5.610  1.1214  0.4485 -0.3819
 2420SOL     OW 8700   7.713   1.724   1.712  0.2692  0.0790  0.6650
 2420SOL    HW1 8701   7.627   1.714   1.671  0.1558  2.5816  0.1349
 2420SOL    HW2 8702   7.763   1.648   1.682 -0.2281  1.0488 -3.1733
 2421SOL     OW 8703   5.459   3.520   1.142  0.4271  0.2309  0.7937
 2421SOL    HW1 8704   5.461   3.452   1.075  0.2050  0.5827  0.4264
 2421SOL    HW2 8705   5.514   3.486   1.212 -1.2799 -1.2271  1.5045
 2422SOL     OW 8706   3.950   0.240   5.596 -0.4838  0.1063 -0.0031
 2422SOL    HW1 8707   3.976   0.257   5.506 -1.0393  0.1472 -0.1628
 2422SOL    HW2 8708   3.960   0.146   5.608 -0.6835  0.0584 -0.2022
 2423SOL     OW 8709   7.318   7.312   8.944  0.1439  0.3531  0.1509
 2423SOL    HW1 8710   7.255   7.366   8.897 -2.3612 -1.5903  1.0387
 2423SOL    HW2 8711   7.337   7.239   8.885 -0.9984 -0.7253  1.0416
 2424SOL     OW 8712   1.859   2.623   3.508 -0.0875 -0.0966 -0.1278
 2424SOL    HW1 8713   1.931   2.654   3.454 -1.3568  1.4820 -1.0137
 2424SOL    HW2 8714   1.800   2.578   3.446 -0.3963 -0.4081  0.3793
 2425SOL     OW 8715   3.576   5.189  10.786 -0.2220  0.3169 -0.3780
 2425SOL    HW1 8716   3.620   5.126  10.728  1.4096  1.3767 -0.3592
 2425SOL    HW2 8717   3.616   5.273  10.765 -0.2367  0.8755  1.6384
 2426SOL     OW 8718   5.179   2.850  11.719  0.1362  0.5149  0.5475
 2426SOL    HW1 8719   5.270   2.832  11.740  0.3844  1.4331  0.2525
 2426SOL    HW2 8720   5.150   2.911  11.786 -0.2966  0.1600  0.6938
 2427SOL     OW 8721   6.079   2.107  11.876  0.5258  0.0362 -0.1182
 2427SOL    HW1 8722   6.058   2.055  11.799  0.0199  0.4957 -0.3002
 2427SOL    HW2 8723   6.158   2.067  11.912 -0.3322 -1.3687  0.2428
 2428SOL     OW 8724   3.404   1.133   2.951  0.8338  0.2855 -0.1368
 2428SOL    HW1 8725   3.498   1.130   2.936  1.1479  1.3462  1.4077
 2428SOL    HW2 8726   3.387   1.062   3.012  0.5475 -0.1412 -0.6968
 2429SOL     OW 8727   0.018   1.328   3.163  0.3191 -0.1808 -0.1809
 2429SOL    HW1 8728  -0.036   1.249   3.160  1.5045 -1.0909  1.1932
 2429SOL    HW2 8729  -0.016   1.382   3.092 -1.6908 -1.1497 -0.0401
 2430SOL     OW 8730   0.994   6.583   0.963 -0.0518 -0.0613  0.1386
 2430SOL    HW1 8731   0.960   6.505   0.919  0.2194  1.2769 -2.6550
 2430SOL    HW2 8732   0.926   6.606   1.026 -0.8282 -1.6791 -0.0403
 2431SOL     OW 8733   0.333   4.839   6.325 -0.5194 -0.1655 -0.4413
 2431SOL    HW1 8734   0.323   4.894   6.247 -0.8900  0.1553 -0.1722
 2431SOL    HW2 8735   0.320   4.899   6.398 -1.6346 -0.7442 -0.1443
 2432SOL     OW 8736   4.340   6.427   1.376 -0.0272  0.2109  0.1866
 2432SOL    HW1 8737   4.331   6.381   1.292 -0.3208 -1.3086  1.0135
 2432SOL    HW2 8738   4.329   6.359   1.442  0.2426  1.3699  1.4764
 2433SOL     OW 8739   1.809   6.678   4.832 -0.3925 -0.4687  0.3686
 2433SOL    HW1 8740   1.778   6.717   4.913  0.4263  0.7378  0.1308
 2433SOL    HW2 8741   1.740   6.698   4.768 -0.4034 -0.2107  0.4583
 2434SOL     OW 8742   1.788   2.647   6.179  0.2239 -0.0060 -0.4798
 2434SOL    HW1 8743   1.745   2.576   6.132  0.0300 -0.7846  0.8150
 2434SOL    HW2 8744   1.741   2.726   6.152  0.1587 -0.4122 -1.5994
 2435SOL     OW 8745   2.844   0.201   7.338 -0.0062 -0.0452 -0.6105
 2435SOL    HW1 8746   2.812   0.111   7.337 -0.4088  0.0754 -2.1258
 2435SOL    HW2 8747   2.835   0.229   7.429 -2.1615 -0.7364 -0.5491
 2436SOL     OW 8748   7.450   3.901   9.620 -0.1760  0.1808  0.5086
 2436SOL    HW1 8749   7.428   3.894   9.527  0.5061 -2.9847  0.4764
 2436SOL    HW2 8750   7.545   3.907   9.622 -0.1356 -0.5356  1.0236
 2437SOL     OW 8751   7.212   7.739   0.797  0.0249  0.1099 -0.6587
 2437SOL    HW1 8752   7.293   7.687   0.793  0.1119  0.1637  0.1942
 2437SOL    HW2 8753   7.228   7.812   0.738  0.2097 -0.4062 -1.2637
 2438SOL     OW 8754   7.104   1.710  11.567 -0.4492 -0.5478  0.1878
 2438SOL    HW1 8755   7.090   1.615  11.562 -2.1842 -0.3173  0.2386
 2438SOL    HW2 8756   7.034   1.748  11.513 -1.1617  0.7769  1.9478
 2439SOL     OW 8757   5.891   4.976   6.986  0.5825 -0.4361  0.0483
 2439SOL    HW1 8758   5.884   4.962   7.081 -0.2719 -1.3831 -0.1456
 2439SOL    HW2 8759   5.940   4.899   6.955 -1.9006 -1.8190 -0.6807
 2440SOL     OW 8760   2.211   2.373   8.156  0.2947  0.0993 -0.0282
 2440SOL    HW1 8761   2.143   2.309   8.180  0.2615  0.3653  0.5996
 2440SOL    HW2 8762   2.167   2.458   8.162  0.2181  0.1680 -1.2742
 2441SOL     OW 8763   5.836   7.645   5.688 -0.2053  0.7374 -0.1853
 2441SOL    HW1 8764   5.863   7.723   5.737  2.7120  0.0147 -0.5133
 2441SOL    HW2 8765   5.843   7.573   5.751 -0.3507  0.3650 -0.5894
 2442SOL     OW 8766   5.834   0.541   0.088  0.0825 -0.6091  0.0909
 2442SOL    HW1 8767   5.906   0.479   0.075  0.1580  0.1309 -4.2245
 2442SOL    HW2 8768   5.760   0.486   0.115  0.6767 -2.3648 -1.6039
 2443SOL     OW 8769   3.575   6.384   8.256 -0.4668 -0.0020  0.5097
 2443SOL    HW1 8770   3.582   6.289   8.245  0.9674  0.2271 -0.9025
 2443SOL    HW2 8771   3.510   6.395   8.325  1.6806 -2.1244  3.1012
 2444SOL     OW 8772   7.369   4.057   7.123 -0.1154 -0.1475  0.2918
 2444SOL    HW1 8773   7.434   4.058   7.052 -0.8144  0.7425 -0.3582
 2444SOL    HW2 8774   7.371   3.967   7.155  0.7969 -0.3675 -0.3169
 2445SOL     OW 8775   5.961   5.583   8.455 -0.2756  0.2938 -0.4168
 2445SOL    HW1 8776   5.931   5.674   8.457 -1.0100  0.0639  1.7575
 2445SOL    HW2 8777   5.986   5.568   8.364  0.5688  2.8758 -0.6932
 2446SOL     OW 8778   7.220   4.800   3.983  0.0124 -0.5313  0.1810
 2446SOL    HW1 8779   7.217   4.895   3.979  0.3057 -0.5373 -0.2126
 2446SOL    HW2 8780   7.303   4.780   4.026 -0.3660 -0.5982  0.8970
 2447SOL     OW 8781   0.800   0.269   0.222  0.3078  0.6747  0.3351
 2447SOL    HW1 8782   0.740   0.322   0.170 -2.0402 -0.6351  1.5360
 2447SOL    HW2 8783   0.793   0.303   0.311  0.2683 -0.3816  0.7560
 2448SOL     OW 8784   5.128   0.504   5.287 -0.0343  0.1281 -0.1762
 2448SOL    HW1 8785   5.168   0.544   5.210 -1.0928 -0.6977 -1.1938
 2448SOL    HW2 8786   5.036   0.529   5.282 -0.3090 -0.7664  0.2577
 2449SOL     OW 8787   7.059   5.039   4.776 -0.1026 -0.0128 -0.2433
 2449SOL    HW1 8788   7.015   4.961   4.742  0.6907 -0.2913 -0.6583
 2449SOL    HW2 8789   6.988   5.093   4.811 -0.5162 -2.0694  2.5073
 2450SOL     OW 8790   1.748   7.302  10.092  0.0177  0.2120 -0.2404
 2450SOL    HW1 8791   1.689   7.372  10.064 -0.5147  0.0387  0.4305
 2450SOL    HW2 8792   1.778   7.329  10.179  2.1361  1.0525 -1.1502
 2451SOL     OW 8793   0.993   2.273   6.230 -0.4804  0.2203  0.7334
 2451SOL    HW1 8794   1.051   2.319   6.170 -0.1565  0.4371  1.2078
 2451SOL    HW2 8795   0.978   2.334   6.302 -1.1311  0.0902  0.7201
 2452SOL     OW 8796   3.337   3.842   9.832  0.3227  0.3724  0.2217
 2452SOL    HW1 8797   3.344   3.916   9.893  1.9426  0.4347  0.0231
 2452SOL    HW2 8798   3.397   3.776   9.868  1.2940  0.4040 -1.2505
 2453SOL     OW 8799   0.386   4.611  12.023  0.7010  0.6127  0.3671
 2453SOL    HW1 8800   0.349   4.565  12.098  1.4972 -0.6103  0.0447
 2453SOL    HW2 8801   0.477   4.626  12.046  1.1853 -0.5614 -0.6794
 2454SOL     OW 8802   2.179   1.310   3.775 -0.3804 -0.4342 -0.5346
 2454SOL    HW1 8803   2.195   1.216   3.788  0.6824 -0.0168  1.5253
 2454SOL    HW2 8804   2.266   1.349   3.772 -0.8308  0.6838  0.3739
 2455SOL     OW 8805   7.621   7.907   6.725  0.1932 -0.1909 -0.4116
 2455SOL    HW1 8806   7.716   7.914   6.715  0.4525 -0.8102  1.2473
 2455SOL    HW2 8807   7.609   7.832   6.784 -1.1677  1.4190  1.4756
 2456SOL     OW 8808   3.395   5.848   4.697  0.6222 -0.3023 -0.0737
 2456SOL    HW1 8809   3.303   5.874   4.711  0.6470  0.1110 -0.6356
 2456SOL    HW2 8810   3.390   5.761   4.658  0.4640 -0.1836 -0.3180
 2457SOL     OW 8811   4.295   7.787   6.156 -0.0628 -0.0876  0.5165
 2457SOL    HW1 8812   4.359   7.829   6.213  1.7772  0.8144 -2.0445
 2457SOL    HW2 8813   4.284   7.849   6.083 -0.8766 -1.9647 -1.0406
 2458SOL     OW 8814   2.454   3.162   9.414  0.0101  0.2518 -0.0739
 2458SOL    HW1 8815   2.363   3.131   9.417  0.2504 -0.5564 -0.6840
 2458SOL    HW2 8816   2.448   3.249   9.375 -0.4478 -0.0771 -0.7706
 2459SOL     OW 8817   5.899   4.322   6.090  0.1558  0.1669 -0.4041
 2459SOL    HW1 8818   5.905   4.413   6.063  1.2609  0.6118  1.1436
 2459SOL    HW2 8819   5.952   4.274   6.027  1.5535  0.9708  0.0996
 2460SOL     OW 8820   7.350   6.863   5.186  0.2941 -0.2246  0.5668
 2460SOL    HW1 8821   7.398   6.911   5.253  1.1720  1.2778 -1.0921
 2460SOL    HW2 8822   7.400   6.874   5.106 -0.1416 -2.8851 -0.1980
 2461SOL     OW 8823   0.849   5.764   0.893 -0.1146  0.2984  0.2155
 2461SOL    HW1 8824   0.838   5.721   0.977 -1.0822 -0.8116 -0.4549
 2461SOL    HW2 8825   0.862   5.693   0.830  1.9811  1.1510 -0.4112
 2462SOL     OW 8826   5.233   1.069  12.352  0.6360  0.3259 -0.3435
 2462SOL    HW1 8827   5.290   1.146  12.364  0.7598 -0.0973  2.3877
 2462SOL    HW2 8828   5.155   1.090  12.403  0.1537 -0.8685 -0.5802
 2463SOL     OW 8829   7.099   1.277   8.087  0.4476 -0.3166 -0.4432
 2463SOL    HW1 8830   7.046   1.223   8.028 -0.6986 -1.2759  1.3376
 2463SOL    HW2 8831   7.034   1.319   8.144  1.4883  0.7437 -0.0116
 2464SOL     OW 8832   7.058   2.442   3.065  0.2672  0.7021  0.0371
 2464SOL    HW1 8833   7.090   2.363   3.106  0.8081 -0.5556 -2.5911
 2464SOL    HW2 8834   7.120   2.510   3.091  1.5802 -0.4011 -0.1107
 2465SOL     OW 8835   1.855   6.882   9.200  0.5224  0.1086 -0.5834
 2465SOL    HW1 8836   1.935   6.926   9.227 -0.0311  0.3311  0.7667
 2465SOL    HW2 8837   1.788   6.951   9.198 -0.0078 -0.3781 -0.0052
 2466SOL     OW 8838   3.828   2.821   8.492 -0.6293  0.0981  0.3827
 2466SOL    HW1 8839   3.820   2.913   8.467 -3.5237  0.0683  0.8353
 2466SOL    HW2 8840   3.882   2.822   8.571 -0.2156  1.3528  0.1025
 2467SOL     OW 8841   6.266   2.365   7.380 -0.0139 -0.0871 -0.2553
 2467SOL    HW1 8842   6.250   2.275   7.409 -0.9410 -0.0646 -0.6545
 2467SOL    HW2 8843   6.195   2.416   7.418  0.5089  0.4844 -0.0307
 2468SOL     OW 8844   5.806   5.249   7.089  0.2584  0.1717 -0.5910
 2468SOL    HW1 8845   5.843   5.295   7.012  1.0209 -0.7005 -0.7613
 2468SOL    HW2 8846   5.854   5.167   7.093 -0.3294 -0.1380  0.3721
 2469SOL     OW 8847   5.974   7.118  11.256 -0.0410 -0.1345 -0.0635
 2469SOL    HW1 8848   6.013   7.185  11.200 -0.8547  0.6339  0.2607
 2469SOL    HW2 8849   5.980   7.037  11.205 -0.4384  0.4824 -1.1052
 2470SOL     OW 8850   0.200   1.621   8.561 -0.5324 -0.7059  0.0867
 2470SOL    HW1 8851   0.217   1.540   8.513 -2.5550 -2.4970  2.1519
 2470SOL    HW2 8852   0.270   1.624   8.627  0.0962 -0.2056 -0.5786
 2471SOL     OW 8853   0.555   4.190  11.086  0.0408 -0.2193 -0.1030
 2471SOL    HW1 8854   0.466   4.162  11.062 -0.3600  0.1362  0.9022
 2471SOL    HW2 8855   0.577   4.257  11.021 -0.5704 -0.0684 -0.1628
 2472SOL     OW 8856   6.128   6.805   0.220  0.5127  0.2393 -0.4759
 2472SOL    HW1 8857   6.166   6.890   0.246  1.6226 -0.8085  1.5748
 2472SOL    HW2 8858   6.166   6.788   0.133 -0.0648  2.0062 -1.1152
 2473SOL     OW 8859   3.935   3.381  12.210  0.3021  0.3447 -0.0291
 2473SOL    HW1 8860   3.972   3.446  12.150  2.4141 -0.2885  0.4764
 2473SOL    HW2 8861   4.003   3.369  12.277  0.2951 -2.7873 -0.4352
 2474SOL     OW 8862   2.899   4.538   5.385  0.1683  0.5357 -0.2236
 2474SOL    HW1 8863   2.830   4.520   5.448 -0.0212 -0.9783 -0.8335
 2474SOL    HW2 8864   2.885   4.630   5.360 -2.5056 -0.1034 -1.3955
 2475SOL     OW 8865   4.837   4.541   6.532  0.5522  0.0281  0.1839
 2475SOL    HW1 8866   4.829   4.497   6.447 -0.8483  0.6125 -0.0201
 2475SOL    HW2 8867   4.759   4.515   6.580  1.4011 -0.4012  1.3717
 2476SOL     OW 8868   4.203   7.296  11.702 -0.1507  0.2622  0.3438
 2476SOL    HW1 8869   4.142   7.232  11.740  1.4082 -1.9083 -0.6295
 2476SOL    HW2 8870   4.183   7.294  11.608 -0.4662  1.6877  0.3626
 2477SOL     OW 8871   5.832   2.395   5.234 -0.1560  0.2796 -0.2908
 2477SOL    HW1 8872   5.882   2.471   5.265  0.5776 -0.7512  1.1658
 2477SOL    HW2 8873   5.883   2.319   5.264 -2.7336 -0.8388  1.5375
 2478SOL     OW 8874   3.312   6.523   2.856 -0.0687 -0.2545  0.2990
 2478SOL    HW1 8875   3.372   6.596   2.841 -2.1933  1.2428 -1.4284
 2478SOL    HW2 8876   3.336   6.458   2.789  0.3641 -0.1786  0.3779
 2479SOL     OW 8877   3.290   2.114  11.023 -0.3470  0.4291  0.2473
 2479SOL    HW1 8878   3.298   2.200  11.064 -0.8476  0.3094  0.6044
 2479SOL    HW2 8879   3.346   2.119  10.945  0.5056  0.7025  0.8676
 2480SOL     OW 8880   5.848   2.931   9.713  0.6386 -0.6050 -0.2755
 2480SOL    HW1 8881   5.756   2.954   9.702 -0.2858 -2.0151  3.2068
 2480SOL    HW2 8882   5.889   3.012   9.742  0.3638 -0.1704 -1.0543
 2481SOL     OW 8883   5.053   7.653   5.730 -0.4689  0.3085  0.0688
 2481SOL    HW1 8884   5.089   7.569   5.701  0.5732  0.5730  0.5247
 2481SOL    HW2 8885   5.063   7.711   5.654 -1.6030 -0.0809 -0.3946
 2482SOL     OW 8886   4.277   5.148   0.388 -0.2938  0.3898  0.8369
 2482SOL    HW1 8887   4.213   5.084   0.419  0.0020 -0.4969 -0.3021
 2482SOL    HW2 8888   4.253   5.164   0.296  1.2939 -0.2286  0.2833
 2483SOL     OW 8889   0.652   3.028   7.753 -0.0539  0.5028  0.6622
 2483SOL    HW1 8890   0.724   3.050   7.694 -0.5812 -0.6369 -0.4465
 2483SOL    HW2 8891   0.643   2.933   7.746 -1.8913  0.6562  0.4980
 2484SOL     OW 8892   4.553   0.570   2.374 -0.4298 -0.1245 -0.4489
 2484SOL    HW1 8893   4.469   0.580   2.419 -0.7130  0.0484 -1.0017
 2484SOL    HW2 8894   4.566   0.476   2.366  2.2622 -0.5338  4.8279
 2485SOL     OW 8895   5.644   0.008   1.420  0.1994  0.7245  0.4152
 2485SOL    HW1 8896   5.563   0.059   1.418  0.8034  1.7020  0.0071
 2485SOL    HW2 8897   5.660  -0.009   1.513  0.6368  2.3841  0.6797
 2486SOL     OW 8898   4.916   4.881   4.915 -0.3958 -0.1109 -0.3999
 2486SOL    HW1 8899   4.972   4.912   4.985  1.7960 -1.4876 -1.4440
 2486SOL    HW2 8900   4.910   4.786   4.929 -1.8638 -0.1069 -0.7696
 2487SOL     OW 8901   6.682   7.464   0.548  0.0818 -0.3218  0.2754
 2487SOL    HW1 8902   6.756   7.432   0.497 -0.0407 -0.1429 -0.0227
 2487SOL    HW2 8903   6.677   7.557   0.525  0.9673  0.1285  1.7800
 2488SOL     OW 8904   3.797   5.821   4.694  0.4183 -0.0493  0.4613
 2488SOL    HW1 8905   3.780   5.890   4.759  2.2356  0.9999 -0.0904
 2488SOL    HW2 8906   3.873   5.853   4.646  0.3321 -1.7449 -0.8740
 2489SOL     OW 8907   4.809   4.475   3.704  0.3467 -0.0202 -0.4784
 2489SOL    HW1 8908   4.724   4.474   3.747  1.0328 -0.8510  0.9495
 2489SOL    HW2 8909   4.795   4.523   3.623 -1.2074  0.8719  0.2817
 2490SOL     OW 8910   6.501   5.173   3.208 -0.3026 -0.2344  0.4851
 2490SOL    HW1 8911   6.591   5.185   3.239  0.1312 -0.3472 -0.6711
 2490SOL    HW2 8912   6.496   5.228   3.129 -2.0240  1.7906  1.8816
 2491SOL     OW 8913   5.055   0.809   9.158 -0.2378 -0.0983 -0.4980
 2491SOL    HW1 8914   5.048   0.808   9.253  0.6730 -0.5226 -0.4149
 2491SOL    HW2 8915   5.008   0.731   9.129  0.3481 -0.5367 -0.3024
 2492SOL     OW 8916   6.214   0.418   8.606  0.1207  0.0297 -0.1439
 2492SOL    HW1 8917   6.155   0.343   8.606 -2.2152  1.7146 -1.4556
 2492SOL    HW2 8918   6.219   0.444   8.698 -1.0646 -0.3093  0.0437
 2493SOL     OW 8919   7.786   7.067   2.310 -0.0989  0.4178  0.0586
 2493SOL    HW1 8920   7.862   7.124   2.295 -0.4423  1.1592  1.0163
 2493SOL    HW2 8921   7.742   7.105   2.386 -1.4000 -0.0299 -0.4349
 2494SOL     OW 8922   2.211   0.995  12.123  0.2520 -0.0431  0.1310
 2494SOL    HW1 8923   2.162   0.913  12.130  0.5956 -0.4548 -1.8035
 2494SOL    HW2 8924   2.258   0.989  12.040 -1.2985  2.9050 -1.1620
 2495SOL     OW 8925   3.294   3.709   1.080  0.7110  0.1581 -0.0812
 2495SOL    HW1 8926   3.260   3.721   1.169 -0.3359  0.9463 -0.5652
 2495SOL    HW2 8927   3.387   3.732   1.086  0.9603 -1.0468  1.0580
 2496SOL     OW 8928   4.686   2.870   3.564 -0.3936  0.7875 -0.5020
 2496SOL    HW1 8929   4.601   2.910   3.552 -0.4607  1.4210  1.6964
 2496SOL    HW2 8930   4.676   2.814   3.641  1.1331  0.7923 -0.2626
 2497SOL     OW 8931   2.303   7.778   4.612  0.8050 -0.1910 -0.6530
 2497SOL    HW1 8932   2.318   7.742   4.525 -0.2189  0.3763 -1.0827
 2497SOL    HW2 8933   2.350   7.861   4.612 -0.5992  0.6463 -1.3075
 2498SOL     OW 8934   2.310   7.532  12.065 -0.3095 -0.5162  0.1922
 2498SOL    HW1 8935   2.382   7.570  12.015 -2.2899  1.3297 -1.3851
 2498SOL    HW2 8936   2.239   7.595  12.059 -1.5916 -1.4828  3.1041
 2499SOL     OW 8937   5.457   3.292   4.454 -0.8527 -0.4041 -0.1592
 2499SOL    HW1 8938   5.511   3.300   4.375  0.4506 -0.2811  0.7081
 2499SOL    HW2 8939   5.470   3.375   4.500 -0.3893 -1.0398  0.8984
 2500SOL     OW 8940   1.960   6.301   5.077 -0.1347 -0.4621  0.6356
 2500SOL    HW1 8941   2.034   6.255   5.117  1.3013  0.3466 -0.9496
 2500SOL    HW2 8942   1.934   6.366   5.142  0.9565 -0.3658  0.9967
 2501SOL     OW 8943   4.547   6.011   7.971 -0.4902 -0.4113  0.1389
 2501SOL    HW1 8944   4.464   5.978   7.938 -0.7504  0.3604  0.0103
 2501SOL    HW2 8945   4.553   6.100   7.938  0.0407 -0.2013  0.7716
 2502SOL     OW 8946   7.030   0.586   2.851 -0.0605  0.1350 -0.6320
 2502SOL    HW1 8947   6.988   0.639   2.919 -0.3716  0.9664 -1.4592
 2502SOL    HW2 8948   6.971   0.511   2.840  0.7970 -0.8458  1.1200
 2503SOL     OW 8949   7.877   6.355   4.878  0.4177 -0.4663  0.1847
 2503SOL    HW1 8950   7.929   6.432   4.899 -0.3315 -0.0064  0.4007
 2503SOL    HW2 8951   7.788   6.388   4.867 -0.1444 -1.4467  1.4881
 2504SOL     OW 8952   1.680   0.342  10.316  0.1424 -0.0503 -0.0230
 2504SOL    HW1 8953   1.608   0.312  10.370 -0.1205  0.9982  0.2422
 2504SOL    HW2 8954   1.729   0.402  10.373  1.5344 -1.1507 -0.0261
 2505SOL     OW 8955   0.527   4.601   5.386  0.1844 -0.0293 -0.7308
 2505SOL    HW1 8956   0.467   4.562   5.450  0.3713 -1.1646 -1.2236
 2505SOL    HW2 8957   0.607   4.549   5.395 -0.4547 -1.6468 -3.3211
 2506SOL     OW 8958   0.477   4.629   2.894 -0.1646  0.2621  0.5469
 2506SOL    HW1 8959   0.423   4.586   2.960 -0.0725  0.9864  1.1120
 2506SOL    HW2 8960   0.503   4.712   2.935  0.9902  0.1276  0.1114
 2507SOL     OW 8961   3.841   6.719   2.521 -0.1220  0.2913  0.2094
 2507SOL    HW1 8962   3.777   6.789   2.531  0.3542  0.7640 -0.0181
 2507SOL    HW2 8963   3.918   6.749   2.569  0.1484  0.0018 -0.0370
 2508SOL     OW 8964   3.254   3.813   2.338 -0.0984  0.1786 -0.0542
 2508SOL    HW1 8965   3.337   3.827   2.292 -0.2738  0.5914 -0.2512
 2508SOL    HW2 8966   3.255   3.720   2.361  0.8902  0.3973  0.8670
 2509SOL     OW 8967   6.667   6.217  10.408 -0.4061 -0.0767 -0.3172
 2509SOL    HW1 8968   6.701   6.182  10.325  0.1034  0.0169 -0.1484
 2509SOL    HW2 8969   6.599   6.154  10.434 -0.2961 -0.3183 -0.6074
 2510SOL     OW 8970   5.586   2.307  10.750  0.2811 -0.0208 -0.3317
 2510SOL    HW1 8971   5.542   2.340  10.672 -0.5373 -2.4474 -0.9866
 2510SOL    HW2 8972   5.526   2.241  10.785  2.1240 -1.4127  0.3618
 2511SOL     OW 8973   0.904   4.986   0.556 -0.3649  0.0116  0.2182
 2511SOL    HW1 8974   0.937   4.984   0.466 -0.4646 -0.7019  0.1933
 2511SOL    HW2 8975   0.812   4.961   0.549  0.2891 -2.9370  0.7801
 2512SOL     OW 8976   6.621   1.099  12.015 -0.2380  0.0617  0.2900
 2512SOL    HW1 8977   6.646   1.025  11.960 -0.1712 -0.6349  1.2280
 2512SOL    HW2 8978   6.534   1.125  11.983  0.4460  0.6783 -1.1396
 2513SOL     OW 8979   6.711   1.986   8.022 -0.3038 -0.1980 -0.1527
 2513SOL    HW1 8980   6.673   2.068   7.991 -1.0909 -0.9074 -1.1331
 2513SOL    HW2 8981   6.803   1.993   8.000  0.1106  1.3107  1.7428
 2514SOL     OW 8982   1.364   7.368   6.328 -0.4020 -0.1515 -0.2472
 2514SOL    HW1 8983   1.329   7.437   6.272  1.4523  0.7950 -0.3193
 2514SOL    HW2 8984   1.424   7.413   6.388  0.0810 -1.5570  0.3804
 2515SOL     OW 8985   2.653   0.706   5.138  0.1735 -0.0232 -0.1379
 2515SOL    HW1 8986   2.702   0.703   5.220  0.7434 -1.5218 -0.4915
 2515SOL    HW2 8987   2.692   0.779   5.089 -0.5562  1.2555  1.1157
 2516SOL     OW 8988   4.394   7.338  10.334 -0.0714 -0.1015 -0.1112
 2516SOL    HW1 8989   4.316   7.339  10.279  0.8729 -0.4352 -1.4940
 2516SOL    HW2 8990   4.410   7.245  10.352  0.7382 -0.1496 -0.9551
 2517SOL     OW 8991   6.174   7.945   4.472 -0.3195 -0.1875 -0.5653
 2517SOL    HW1 8992   6.198   7.995   4.550 -0.9249 -1.6184  0.6042
 2517SOL    HW2 8993   6.190   8.004   4.399 -2.9957  2.5339  0.8118
 2518SOL     OW 8994   3.306   0.296   1.123 -0.2156  0.5459  0.1523
 2518SOL    HW1 8995   3.388   0.312   1.076 -0.4013  2.0074  0.2776
 2518SOL    HW2 8996   3.239   0.291   1.055 -0.2369  0.9013  0.1462
 2519SOL     OW 8997   7.556   1.105   9.655 -0.1255  0.8254  0.5677
 2519SOL    HW1 8998   7.607   1.162   9.712  4.7704 -1.1308 -1.2747
 2519SOL    HW2 8999   7.576   1.016   9.685 -1.3702 -0.1345 -1.1874
 2520SOL     OW 9000   1.835   1.893   2.901 -0.1711  0.3211  0.0984
 2520SOL    HW1 9001   1.755   1.861   2.861  0.0536 -0.5147  0.3124
 2520SOL    HW2 9002   1.824   1.989   2.902 -0.4800  0.3179 -1.2910
 2521SOL     OW 9003   2.625   0.681   0.931 -0.1312  0.4535  0.8426
 2521SOL    HW1 9004   2.533   0.702   0.950  0.0795  0.3845  2.0294
 2521SOL    HW2 9005   2.675   0.734   0.994  0.6108 -0.0291  0.6730
 2522SOL     OW 9006   0.379   3.113   4.887  0.6504 -0.0892  0.0392
 2522SOL    HW1 9007   0.363   3.041   4.825  0.8768  1.7744 -2.3118
 2522SOL    HW2 9008   0.410   3.069   4.966 -0.1010 -2.6339 -0.9578
 2523SOL     OW 9009   6.462   2.265  12.121 -0.3253 -0.0172 -0.3656
 2523SOL    HW1 9010   6.446   2.285  12.029 -0.8872  0.1712 -0.2287
 2523SOL    HW2 9011   6.439   2.173  12.131 -2.4565  0.5030  0.0652
 2524SOL     OW 9012   0.322   0.116   1.065  0.2267 -0.0679 -0.5099
 2524SOL    HW1 9013   0.380   0.190   1.051  1.6611 -0.9697  0.4921
 2524SOL    HW2 9014   0.330   0.064   0.985 -1.4834  1.2242 -1.6238
 2525SOL     OW 9015   7.538   1.546  10.281 -0.8695  0.4724  0.2206
 2525SOL    HW1 9016   7.551   1.495  10.361 -0.2764 -1.0987 -0.8144
 2525SOL    HW2 9017   7.461   1.599  10.299 -0.9947 -0.1457  1.6885
 2526SOL     OW 9018   5.520   0.625   1.646 -0.5120 -1.1023 -0.3284
 2526SOL    HW1 9019   5.500   0.598   1.556 -1.0333 -0.9906 -0.2467
 2526SOL    HW2 9020   5.594   0.685   1.637 -1.0704 -0.4597 -0.7691
 2527SOL     OW 9021   0.047   3.189   4.446  0.8437 -0.2408  0.6053
 2527SOL    HW1 9022   0.042   3.251   4.519 -0.6090  0.4322 -0.0061
 2527SOL    HW2 9023  -0.045   3.175   4.421  1.2534 -1.3460 -0.3470
 2528SOL     OW 9024   1.437   7.642  10.571 -0.0464 -0.3021 -0.3226
 2528SOL    HW1 9025   1.380   7.690  10.631 -0.0697  1.0611 -1.3882
 2528SOL    HW2 9026   1.388   7.562  10.551 -1.4039  0.5971 -0.8085
 2529SOL     OW 9027   0.636   5.770   2.764  0.1317 -0.0349  0.1991
 2529SOL    HW1 9028   0.576   5.802   2.697 -0.3415  0.4564  0.8368
 2529SOL    HW2 9029   0.588   5.700   2.808  0.9493 -1.2875 -0.8221
 2530SOL     OW 9030   6.926   3.308  11.380  0.5998 -0.6072 -1.0436
 2530SOL    HW1 9031   6.938   3.238  11.315  0.0715 -2.6632  0.9619
 2530SOL    HW2 9032   6.842   3.289  11.421  1.4082 -0.0158  1.0012
 2531SOL     OW 9033   6.861   0.910   4.550  0.6687 -0.0964  0.3067
 2531SOL    HW1 9034   6.835   0.994   4.514  0.7049 -0.0710  0.3382
 2531SOL    HW2 9035   6.842   0.917   4.644  0.2246 -0.2996  0.2329
 2532SOL     OW 9036   0.354   7.426   3.986 -0.2692 -0.4190 -0.2108
 2532SOL    HW1 9037   0.349   7.362   4.057 -1.3316  2.3693  2.4767
 2532SOL    HW2 9038   0.444   7.458   3.988 -0.4570  0.1052  0.3884
 2533SOL     OW 9039   5.521   6.291   0.253  0.0351  0.8444 -0.5203
 2533SOL    HW1 9040   5.485   6.378   0.239  2.1754  2.2805  2.0023
 2533SOL    HW2 9041   5.558   6.266   0.168 -1.3021  1.9974 -1.4909
 2534SOL     OW 9042   0.056   4.406   6.029  0.6282  0.1995  0.3613
 2534SOL    HW1 9043   0.073   4.489   5.986 -1.1085  1.0032  1.1240
 2534SOL    HW2 9044   0.087   4.419   6.119  3.0073 -1.0150 -0.1955
 2535SOL     OW 9045   3.972   7.457   8.858  0.0146  0.3639  0.1558
 2535SOL    HW1 9046   3.934   7.460   8.946  2.0381 -0.5598  1.1328
 2535SOL    HW2 9047   3.948   7.370   8.825  0.7972 -0.0081  0.5536
 2536SOL     OW 9048   7.555   0.607  10.358  0.5176 -0.2419 -0.4898
 2536SOL    HW1 9049   7.643   0.579  10.384  0.7656  0.4241 -0.5677
 2536SOL    HW2 9050   7.530   0.672  10.425  0.6890  0.6367 -1.2525
 2537SOL     OW 9051   2.619   4.885   8.816 -0.9673  0.1865  0.0488
 2537SOL    HW1 9052   2.557   4.931   8.759 -1.8353  0.0059  0.8134
 2537SOL    HW2 9053   2.699   4.937   8.813 -0.6374 -0.3600 -2.1189
 2538SOL     OW 9054   7.682   2.735   4.711 -0.2888 -0.5806  0.5326
 2538SOL    HW1 9055   7.696   2.814   4.658  0.7862 -0.8848  0.3301
 2538SOL    HW2 9056   7.629   2.678   4.656 -0.7609 -0.1436  0.5313
 2539SOL     OW 9057   3.431   5.772   2.649  0.4463 -0.1095  0.0938
 2539SOL    HW1 9058   3.486   5.809   2.581 -1.0615 -0.0461 -1.1483
 2539SOL    HW2 9059   3.383   5.701   2.605  2.9526 -3.4697  2.2657
 2540SOL     OW 9060   0.932   6.432   1.512  0.3232  0.4530  0.3393
 2540SOL    HW1 9061   0.889   6.451   1.595  0.3779 -0.1190  0.4996
 2540SOL    HW2 9062   0.865   6.390   1.459  0.3848  0.5079  0.2168
 2541SOL     OW 9063   1.744   0.871  12.336  0.0507 -0.0766 -0.3030
 2541SOL    HW1 9064   1.662   0.898  12.293 -1.0605  0.3723  1.9563
 2541SOL    HW2 9065   1.789   0.953  12.356  0.4036 -0.2691 -0.2999
 2542SOL     OW 9066   4.827   2.678   9.508 -0.3727  0.1945 -0.0279
 2542SOL    HW1 9067   4.831   2.592   9.467 -0.9240 -1.5141  3.1954
 2542SOL    HW2 9068   4.747   2.717   9.473  0.5217 -0.0053 -2.4615
 2543SOL     OW 9069   6.816   2.176   1.616 -0.2433  0.2291  0.2829
 2543SOL    HW1 9070   6.875   2.107   1.586 -1.4536 -0.9008  0.4208
 2543SOL    HW2 9071   6.861   2.214   1.692  0.3101 -0.5978  0.3882
 2544SOL     OW 9072   5.995   3.824   1.795  0.2541 -0.1023  0.1301
 2544SOL    HW1 9073   5.911   3.781   1.782  0.9330 -1.3547 -0.3372
 2544SOL    HW2 9074   5.976   3.896   1.854 -1.2045 -0.1406 -0.2451
 2545SOL     OW 9075   7.140   5.985  12.003 -0.2124  0.3584  0.4319
 2545SOL    HW1 9076   7.169   5.967  12.092  0.0272 -0.3693  0.2119
 2545SOL    HW2 9077   7.165   5.908  11.953  0.5354  1.1476 -0.4713
 2546SOL     OW 9078   2.355   0.677   7.356 -0.3907 -0.4979 -0.6654
 2546SOL    HW1 9079   2.444   0.650   7.378 -0.8629 -0.6704  1.3060
 2546SOL    HW2 9080   2.299   0.610   7.397 -1.4664  1.0101  0.4537
 2547SOL     OW 9081   3.030   2.278   1.419  0.4040  0.5134 -0.3285
 2547SOL    HW1 9082   3.080   2.197   1.429 -0.8651 -0.4385 -1.2897
 2547SOL    HW2 9083   2.994   2.294   1.506  1.3916  0.5504  0.0834
 2548SOL     OW 9084   5.705   4.617   7.033  0.3815  0.1943  0.2089
 2548SOL    HW1 9085   5.625   4.627   7.084  2.2039  0.7566  3.2027
 2548SOL    HW2 9086   5.689   4.541   6.977 -1.7645 -0.4776  1.6198
 2549SOL     OW 9087   7.563   6.707  10.258 -0.0946 -0.0411  0.2135
 2549SOL    HW1 9088   7.481   6.667  10.287 -0.8232  0.8535 -0.5597
 2549SOL    HW2 9089   7.630   6.661  10.308 -1.0546 -0.8180  0.8415
 2550SOL     OW 9090   6.308   2.453  10.146  0.3728 -0.4898 -0.1253
 2550SOL    HW1 9091   6.305   2.360  10.123  2.1952 -0.2731 -1.4511
 2550SOL    HW2 9092   6.344   2.496  10.069  2.6062  0.8827  1.5422
 2551SOL     OW 9093   5.801   0.820   2.318  0.7274 -0.6826 -0.4612
 2551SOL    HW1 9094   5.709   0.817   2.345 -0.1948  1.2679 -3.0209
 2551SOL    HW2 9095   5.827   0.728   2.313 -1.9027 -1.4475 -2.1050
 2552SOL     OW 9096   7.605   5.133   5.560 -0.0292 -0.0232  0.1445
 2552SOL    HW1 9097   7.544   5.174   5.622 -0.0961  0.9447 -0.5274
 2552SOL    HW2 9098   7.561   5.052   5.534 -1.3569  0.9384 -0.7791
 2553SOL     OW 9099   0.773   2.462   3.804 -0.5091 -0.5951 -0.2534
 2553SOL    HW1 9100   0.855   2.441   3.848 -0.0019  2.8422  0.7979
 2553SOL    HW2 9101   0.707   2.453   3.873 -0.3024  0.8386  0.1755
 2554SOL     OW 9102   1.356   4.119   4.120 -1.0440 -0.3627 -0.6787
 2554SOL    HW1 9103   1.409   4.083   4.191 -1.4283 -1.1171 -0.7554
 2554SOL    HW2 9104   1.265   4.109   4.151 -1.1930 -0.2715 -1.0790
 2555SOL     OW 9105   1.263   4.257   0.136  0.0408  0.3587  0.5240
 2555SOL    HW1 9106   1.230   4.243   0.047 -1.0950 -1.6740  1.2093
 2555SOL    HW2 9107   1.203   4.322   0.173 -0.5302 -0.0614  0.3490
 2556SOL     OW 9108   4.760   4.470   6.279 -0.2413 -0.0743  0.2317
 2556SOL    HW1 9109   4.796   4.536   6.220  2.0149 -1.4934 -0.1327
 2556SOL    HW2 9110   4.716   4.407   6.222 -0.6292  0.0839  0.3588
 2557SOL     OW 9111   4.189   2.256  12.178 -0.0902 -0.0014 -0.3749
 2557SOL    HW1 9112   4.179   2.342  12.219 -1.1371 -0.7496  1.0376
 2557SOL    HW2 9113   4.124   2.255  12.108 -0.7348  0.0464  0.2040
 2558SOL     OW 9114   2.067   2.072   6.396  0.4895 -0.6130  0.0554
 2558SOL    HW1 9115   1.988   2.095   6.347  1.6481  0.7563 -1.2718
 2558SOL    HW2 9116   2.107   2.157   6.418  1.7129 -1.2729  0.4724
 2559SOL     OW 9117   2.231   2.353  11.213 -0.0316  0.1500  0.6859
 2559SOL    HW1 9118   2.323   2.342  11.189 -0.3938  1.1143 -1.3930
 2559SOL    HW2 9119   2.224   2.444  11.242 -0.4338  0.2728  0.2159
 2560SOL     OW 9120   7.644   2.529  10.934 -0.1724  0.3877  0.0078
 2560SOL    HW1 9121   7.556   2.514  10.899 -0.4620  0.4965  0.6848
 2560SOL    HW2 9122   7.633   2.524  11.029  0.7395 -0.6031  0.0746
 2561SOL     OW 9123   7.293   0.046   7.644 -0.6239 -0.1435 -0.2967
 2561SOL    HW1 9124   7.260   0.100   7.572 -2.1556 -0.0586  0.4331
 2561SOL    HW2 9125   7.320  -0.036   7.602  1.5936  1.0605 -1.3972
 2562SOL     OW 9126   0.922   7.603   7.601 -0.5761 -0.6514  0.0362
 2562SOL    HW1 9127   0.828   7.587   7.601 -0.5034 -1.1165  0.9230
 2562SOL    HW2 9128   0.952   7.570   7.516 -1.7530  2.9941 -2.0466
 2563SOL     OW 9129   5.484   5.956   8.783  0.6670 -0.2729  0.0638
 2563SOL    HW1 9130   5.447   6.009   8.713 -0.4572 -1.3448 -0.1874
 2563SOL    HW2 9131   5.497   6.018   8.855 -0.7198  0.3472 -0.1795
 2564SOL     OW 9132   0.885   4.718   6.530 -0.1653 -0.3944 -0.1478
 2564SOL    HW1 9133   0.948   4.706   6.601  0.5770  1.1752 -0.5105
 2564SOL    HW2 9134   0.933   4.764   6.462 -1.0353 -1.3460 -1.4579
 2565SOL     OW 9135   7.425   5.036   4.202  0.3750  0.4902  0.1148
 2565SOL    HW1 9136   7.391   5.035   4.112 -0.1194 -0.2859  0.2999
 2565SOL    HW2 9137   7.348   5.046   4.257  0.7763  2.0952  0.4366
 2566SOL     OW 9138   5.832   4.445   0.136 -0.0595 -0.1582 -0.1116
 2566SOL    HW1 9139   5.924   4.462   0.114  0.1491  0.1873  0.9457
 2566SOL    HW2 9140   5.783   4.478   0.061  0.6473  0.2742 -0.3960
 2567SOL     OW 9141   5.792   5.842   1.344 -0.3242 -0.3994 -0.0424
 2567SOL    HW1 9142   5.820   5.894   1.420  0.9376 -0.0385 -0.7228
 2567SOL    HW2 9143   5.851   5.869   1.274 -1.6205 -0.5465 -1.2353
 2568SOL     OW 9144   1.175   2.743  10.120 -0.4114  0.0081  0.2471
 2568SOL    HW1 9145   1.113   2.709  10.056  0.2780 -1.0353  0.1050
 2568SOL    HW2 9146   1.258   2.748  10.073 -0.5063  2.1025  0.2114
 2569SOL     OW 9147   3.731   2.276   3.220 -0.9208 -0.2203 -0.3902
 2569SOL    HW1 9148   3.696   2.314   3.300  1.7222 -0.4677  0.9889
 2569SOL    HW2 9149   3.823   2.259   3.239 -0.8587 -3.0142 -2.5175
 2570SOL     OW 9150   0.272   7.011   3.417  0.1135 -0.1712  0.2955
 2570SOL    HW1 9151   0.269   7.085   3.357 -0.4227 -0.5557 -0.1598
 2570SOL    HW2 9152   0.259   7.050   3.504 -1.5557  0.1243 -0.0682
 2571SOL     OW 9153   5.880   1.285  11.954  0.0930  0.0129  0.1758
 2571SOL    HW1 9154   5.846   1.198  11.972 -0.0461  0.0236 -0.0328
 2571SOL    HW2 9155   5.806   1.332  11.915  0.2296  0.1593  0.0929
 2572SOL     OW 9156   3.908   7.218   4.748 -0.6081  0.2021  0.5013
 2572SOL    HW1 9157   3.989   7.167   4.738 -0.9932 -0.2624 -0.3571
 2572SOL    HW2 9158   3.897   7.227   4.843  0.2734 -0.0067  0.6360
 2573SOL     OW 9159   0.444   6.440   1.094 -0.0361  0.3627 -0.7844
 2573SOL    HW1 9160   0.364   6.476   1.055 -0.4562 -0.8028 -1.0219
 2573SOL    HW2 9161   0.432   6.346   1.090  1.1608  0.1852 -0.3977
 2574SOL     OW 9162   0.615   3.061  10.790  0.6920  0.1686  0.2200
 2574SOL    HW1 9163   0.640   3.104  10.871  1.6595  0.6497 -0.3146
 2574SOL    HW2 9164   0.698   3.047  10.744  0.0578  1.2306 -1.3253
 2575SOL     OW 9165   1.669   2.474   1.343 -0.4622 -0.5524  0.3425
 2575SOL    HW1 9166   1.728   2.538   1.303  0.6953 -2.2092 -0.7226
 2575SOL    HW2 9167   1.588   2.523   1.358  0.2812  1.0929 -0.6307
 2576SOL     OW 9168   0.176   6.610   1.586 -0.0731  0.6881  0.5398
 2576SOL    HW1 9169   0.245   6.668   1.618  0.2701 -0.1931  1.4445
 2576SOL    HW2 9170   0.142   6.654   1.507  2.0612  0.7605 -0.4134
 2577SOL     OW 9171   3.001   6.396   2.770 -0.0003 -0.2281 -0.2859
 2577SOL    HW1 9172   2.970   6.334   2.704 -0.6458  0.6024 -0.7712
 2577SOL    HW2 9173   2.922   6.437   2.804  0.3587 -0.3474  0.7213
 2578SOL     OW 9174   1.606   2.514  10.011  0.1248 -0.1004 -0.2986
 2578SOL    HW1 9175   1.667   2.478   9.947  2.0399  0.3416  1.1718
 2578SOL    HW2 9176   1.627   2.608  10.014 -0.4729  0.0253  0.4045
 2579SOL     OW 9177   2.221   7.263   0.475  0.2052 -0.3619  0.5259
 2579SOL    HW1 9178   2.144   7.319   0.479 -0.6946 -1.6188  1.2828
 2579SOL    HW2 9179   2.278   7.295   0.546 -0.1633 -0.2091  0.7537
 2580SOL     OW 9180   5.187   1.619  10.312 -0.1645  0.2414  0.2897
 2580SOL    HW1 9181   5.221   1.530  10.315 -1.8972 -0.4673  0.3418
 2580SOL    HW2 9182   5.257   1.673  10.350  0.6836 -1.1622  0.8120
 2581SOL     OW 9183   5.420   2.372   8.889 -0.1393  0.7431 -0.4120
 2581SOL    HW1 9184   5.470   2.425   8.826 -0.1010 -0.9033 -1.8592
 2581SOL    HW2 9185   5.337   2.356   8.845  0.0273 -0.7611 -0.2242
 2582SOL     OW 9186   0.408   0.449   2.344 -0.3689 -0.5678  0.4689
 2582SOL    HW1 9187   0.442   0.536   2.363  1.2775 -1.2841  0.9718
 2582SOL    HW2 9188   0.373   0.456   2.255  0.8240  0.3204  0.0349
 2583SOL     OW 9189   6.359   5.613   6.976 -0.0793  0.1973  0.3500
 2583SOL    HW1 9190   6.416   5.634   6.901 -2.4625  2.6132 -0.9742
 2583SOL    HW2 9191   6.404   5.651   7.051  0.2715  1.8043 -0.6221
 2584SOL     OW 9192   4.618   6.674   4.860  0.4957 -0.2889  0.3703
 2584SOL    HW1 9193   4.669   6.601   4.824  0.9402 -0.5044  1.4037
 2584SOL    HW2 9194   4.554   6.694   4.792  1.8070 -0.1648 -0.8724
 2585SOL     OW 9195   3.105   1.131   9.051  0.2318  0.1501 -0.4889
 2585SOL    HW1 9196   3.144   1.044   9.057 -0.9848 -0.3412  1.3022
 2585SOL    HW2 9197   3.010   1.115   9.059 -0.1538  1.5091 -1.9057
 2586SOL     OW 9198   2.923   7.516  10.740  0.0150 -0.4852  0.9067
 2586SOL    HW1 9199   2.830   7.526  10.720  0.1783 -0.6449  0.0239
 2586SOL    HW2 9200   2.965   7.589  10.695  0.4585 -1.1823  0.1708
 2587SOL     OW 9201   7.257   5.795   4.757 -0.5918  0.1754 -0.0420
 2587SOL    HW1 9202   7.230   5.795   4.665  2.8138 -0.5991 -1.1608
 2587SOL    HW2 9203   7.223   5.878   4.791 -1.1889  0.9231 -2.2316
 2588SOL     OW 9204   7.671   0.141   3.551  0.3874  0.4142 -0.6106
 2588SOL    HW1 9205   7.759   0.157   3.586  0.5041  1.5624 -1.3942
 2588SOL    HW2 9206   7.686   0.094   3.469  0.2232 -0.0634 -0.3725
 2589SOL     OW 9207   0.808   1.176   9.266  0.0418 -0.0516  0.4535
 2589SOL    HW1 9208   0.806   1.270   9.248 -1.0101 -0.2590 -0.6883
 2589SOL    HW2 9209   0.818   1.136   9.180  1.9740 -0.9803  1.0604
 2590SOL     OW 9210   1.287   4.127   9.969 -0.0536 -0.3260 -0.5002
 2590SOL    HW1 9211   1.209   4.178   9.945  0.7719  0.4834 -1.5827
 2590SOL    HW2 9212   1.286   4.053   9.908  1.0310  0.7336 -1.9026
 2591SOL     OW 9213   6.547   2.510   5.696 -0.2881  0.1303 -0.0801
 2591SOL    HW1 9214   6.561   2.444   5.764 -0.2264 -0.0916 -0.3093
 2591SOL    HW2 9215   6.607   2.486   5.626 -0.6357  0.1254 -0.3806
 2592SOL     OW 9216   7.591   3.026   8.730 -0.6202 -0.2935  0.0771
 2592SOL    HW1 9217   7.606   3.115   8.697  0.6912 -0.6316 -0.3012
 2592SOL    HW2 9218   7.536   3.038   8.808  1.1436  1.0315  1.1930
 2593SOL     OW 9219   3.394   1.741  11.164  0.2947  0.1809 -0.1093
 2593SOL    HW1 9220   3.319   1.780  11.210 -0.0849 -0.6329 -0.0143
 2593SOL    HW2 9221   3.454   1.715  11.234  0.6637  0.8252 -0.1853
 2594SOL     OW 9222   3.240   5.279   3.019  0.2003 -0.0634  0.2567
 2594SOL    HW1 9223   3.308   5.236   3.072  0.4640 -0.7394 -0.5941
 2594SOL    HW2 9224   3.259   5.372   3.026  1.3102 -0.2471 -0.0543
 2595SOL     OW 9225   7.321   6.218  11.071  0.4096  0.0053 -0.1981
 2595SOL    HW1 9226   7.269   6.143  11.100  1.0869 -0.0234  1.0459
 2595SOL    HW2 9227   7.313   6.218  10.976 -1.2885 -0.3988 -0.0826
 2596SOL     OW 9228   0.926   6.369   2.693 -0.2457  0.0547 -0.1621
 2596SOL    HW1 9229   0.955   6.459   2.675  1.1627  0.3075  2.7751
 2596SOL    HW2 9230   0.925   6.327   2.607  1.8450  2.0960 -1.3214
 2597SOL     OW 9231   6.578   7.932   6.207 -0.5689  0.5371 -0.3362
 2597SOL    HW1 9232   6.639   7.859   6.218 -0.7234  0.2642 -1.2192
 2597SOL    HW2 9233   6.625   7.994   6.151 -0.7761  0.7192 -0.3096
 2598SOL     OW 9234   7.441   4.335   1.839 -0.0149 -0.3154 -0.0267
 2598SOL    HW1 9235   7.372   4.397   1.862  0.9522  1.0268 -0.6027
 2598SOL    HW2 9236   7.396   4.265   1.791 -0.9728  0.4971 -0.3458
 2599SOL     OW 9237   4.134   0.999   3.906 -0.2246 -0.3977 -0.3599
 2599SOL    HW1 9238   4.216   1.047   3.889 -0.0533 -0.5766 -0.0577
 2599SOL    HW2 9239   4.148   0.959   3.992 -1.0921  0.5542  0.2429
 2600SOL     OW 9240   2.100   6.895   9.800  0.4224 -0.2244  0.2854
 2600SOL    HW1 9241   2.024   6.869   9.852  0.9808 -1.4481  0.5348
 2600SOL    HW2 9242   2.144   6.813   9.779  0.8223  0.3287 -1.2016
 2601SOL     OW 9243   0.228   7.869  11.029  0.1630  0.0571 -0.7195
 2601SOL    HW1 9244   0.322   7.856  11.025  0.6108  2.7340 -0.6484
 2601SOL    HW2 9245   0.199   7.870  10.938 -0.1024 -2.1962 -0.7188
 2602SOL     OW 9246   1.129   3.186   8.778 -0.5039  0.4248  0.1282
 2602SOL    HW1 9247   1.096   3.258   8.725 -1.0245 -0.2603 -0.4957
 2602SOL    HW2 9248   1.215   3.166   8.742 -1.1661 -0.5386 -0.9861
 2603SOL     OW 9249   2.128   2.320   8.665 -0.5771  0.1068  0.7733
 2603SOL    HW1 9250   2.181   2.295   8.741 -1.5083  0.3566  1.5200
 2603SOL    HW2 9251   2.038   2.299   8.690 -0.7524 -1.4488 -0.9400
 2604SOL     OW 9252   2.004   0.803  11.902 -0.3563  0.0830  0.3450
 2604SOL    HW1 9253   2.000   0.725  11.959  1.0570 -0.8201 -0.7100
 2604SOL    HW2 9254   1.967   0.873  11.955  0.2854 -0.8633  2.1297
 2605SOL     OW 9255   3.059   3.092   1.603 -0.1678 -0.5528 -0.2500
 2605SOL    HW1 9256   3.138   3.040   1.588  0.2673 -0.4378  1.4619
 2605SOL    HW2 9257   3.091   3.181   1.618 -0.7063 -0.3107 -0.5000
 2606SOL     OW 9258   2.976   5.917   5.135 -0.5140 -0.9323  0.0053
 2606SOL    HW1 9259   2.994   6.009   5.116  0.1472 -0.8991  0.7744
 2606SOL    HW2 9260   3.015   5.870   5.061 -0.4264 -0.6315 -0.1430
 2607SOL     OW 9261   4.481   6.162   2.071  0.2074 -0.1116 -0.3152
 2607SOL    HW1 9262   4.406   6.222   2.068 -0.3753 -0.6062  2.0662
 2607SOL    HW2 9263   4.458   6.098   2.138  2.2969 -0.9707 -0.3327
 2608SOL     OW 9264   3.286   6.697   7.542  0.2043 -0.1217  0.1713
 2608SOL    HW1 9265   3.371   6.737   7.557 -0.1109  0.4776  0.3524
 2608SOL    HW2 9266   3.226   6.741   7.603 -0.3392 -0.1800 -0.3079
 2609SOL     OW 9267   7.837   1.313   5.580  0.2851  0.6096 -0.8177
 2609SOL    HW1 9268   7.914   1.285   5.630  0.8077  2.3369 -0.5767
 2609SOL    HW2 9269   7.870   1.325   5.491  0.2966  1.3028 -0.7252
 2610SOL     OW 9270   4.779   1.011  10.001  0.5791  0.0721 -0.5452
 2610SOL    HW1 9271   4.842   1.080  10.025 -0.6210  1.6202 -1.6757
 2610SOL    HW2 9272   4.782   1.009   9.905 -0.4383 -0.4710 -0.5683
 2611SOL     OW 9273   4.941   5.358   5.720 -0.1892  0.7161 -0.0034
 2611SOL    HW1 9274   4.908   5.411   5.647 -0.6656  0.4616  0.0251
 2611SOL    HW2 9275   5.018   5.314   5.684 -0.9652 -0.1524 -0.6532
 2612SOL     OW 9276   0.139   2.237   6.270  0.0839 -0.0257 -0.1524
 2612SOL    HW1 9277   0.143   2.323   6.313  0.7178  0.1815 -0.5989
 2612SOL    HW2 9278   0.051   2.232   6.234 -0.2661  0.0396  0.6795
 2613SOL     OW 9279   5.271   5.778   0.622 -0.4504  0.1399 -0.2728
 2613SOL    HW1 9280   5.245   5.825   0.543  0.4535 -0.2515 -0.8256
 2613SOL    HW2 9281   5.196   5.723   0.643  0.2112 -1.7455 -2.4186
 2614SOL     OW 9282   4.830   1.956  11.216  0.2566 -0.1001 -0.5142
 2614SOL    HW1 9283   4.880   2.029  11.251 -0.2847  0.1042 -0.1505
 2614SOL    HW2 9284   4.769   1.997  11.154 -0.1297 -0.2174 -0.2202
 2615SOL     OW 9285   1.522   7.093   1.865 -0.5336  0.2577  0.5979
 2615SOL    HW1 9286   1.589   7.101   1.797 -0.4308 -0.9522  0.5231
 2615SOL    HW2 9287   1.463   7.167   1.849  1.4842  2.1688  1.5266
 2616SOL     OW 9288   5.333   3.589   8.175 -0.4553 -0.0923  0.5457
 2616SOL    HW1 9289   5.385   3.532   8.119  1.6461  0.3542  1.9495
 2616SOL    HW2 9290   5.261   3.620   8.118  0.9263 -0.5282 -1.5405
 2617SOL     OW 9291   3.472   0.133   1.865 -0.4186 -0.2604  0.5074
 2617SOL    HW1 9292   3.535   0.061   1.865 -1.2084 -0.9670 -0.1403
 2617SOL    HW2 9293   3.496   0.186   1.941 -0.5444 -1.8546  1.7037
 2618SOL     OW 9294   6.756   7.540  12.230 -0.1102 -0.0358 -0.0048
 2618SOL    HW1 9295   6.834   7.553  12.284  0.1326  0.0910 -0.3837
 2618SOL    HW2 9296   6.784   7.562  12.141 -0.3777 -0.7094 -0.2621
 2619SOL     OW 9297   5.423   2.301   7.268 -0.2171 -0.2926  0.0126
 2619SOL    HW1 9298   5.460   2.353   7.339 -1.0493 -0.8417  0.8765
 2619SOL    HW2 9299   5.499   2.270   7.219  0.3322  0.8113  0.1299
 2620SOL     OW 9300   2.540   5.184   6.473 -0.0427 -0.2717  0.6377
 2620SOL    HW1 9301   2.586   5.214   6.551 -0.1453  2.9793 -0.4142
 2620SOL    HW2 9302   2.602   5.199   6.402 -0.8444 -0.8445 -0.2124
 2621SOL     OW 9303   7.926   0.675   7.420 -0.6402  0.1262 -0.0751
 2621SOL    HW1 9304   7.955   0.591   7.457 -0.1711  0.2220 -0.2259
 2621SOL    HW2 9305   7.999   0.734   7.435  0.1492 -0.1797 -2.3782
 2622SOL     OW 9306   5.164   3.989   8.338 -0.7247  0.0511  0.2049
 2622SOL    HW1 9307   5.163   4.085   8.335  1.0800  0.3329  3.3281
 2622SOL    HW2 9308   5.130   3.969   8.425  1.7918 -1.9092  0.8420
 2623SOL     OW 9309   1.836   0.516  10.424  0.2165 -0.2787  0.4317
 2623SOL    HW1 9310   1.889   0.505  10.502  1.6772  0.6863 -0.3709
 2623SOL    HW2 9311   1.895   0.495  10.351 -0.9961 -0.8090 -0.4406
 2624SOL     OW 9312   5.000   5.035   6.584  0.1471  0.0890  0.4377
 2624SOL    HW1 9313   5.052   5.075   6.514  1.0414  1.1104  1.6615
 2624SOL    HW2 9314   4.914   5.076   6.576 -0.1997 -0.8090 -0.8965
 2625SOL     OW 9315   2.913   5.693   3.201 -0.0282 -0.0872 -0.0845
 2625SOL    HW1 9316   2.979   5.750   3.241  1.6226 -1.7815 -0.2648
 2625SOL    HW2 9317   2.847   5.680   3.270  0.7469  0.1959  0.7253
 2626SOL     OW 9318   0.849   1.731   8.354 -0.3313 -0.5156  0.6891
 2626SOL    HW1 9319   0.794   1.653   8.348  1.9741 -2.2575  0.5793
 2626SOL    HW2 9320   0.879   1.746   8.265 -0.4129  0.2573  0.7861
 2627SOL     OW 9321   2.548   0.034   3.566 -0.3873 -0.1135  0.2886
 2627SOL    HW1 9322   2.512   0.045   3.654 -0.3065  2.0447  0.1122
 2627SOL    HW2 9323   2.555   0.123   3.532  2.1469 -0.6706 -0.8856
 2628SOL     OW 9324   0.948   3.674  11.809  0.5538 -0.1914  1.1420
 2628SOL    HW1 9325   1.043   3.685  11.811  0.7564 -1.0220 -1.2569
 2628SOL    HW2 9326   0.916   3.747  11.756 -0.2205  0.2999  2.2402
 2629SOL     OW 9327   0.167   2.670   5.192  0.6222  0.0964 -0.3827
 2629SOL    HW1 9328   0.223   2.594   5.174 -0.3301 -0.3533 -1.5419
 2629SOL    HW2 9329   0.078   2.634   5.195  0.0312  1.3106 -2.1241
 2630SOL     OW 9330   6.157   1.636  12.190  0.2398 -0.0083  0.3735
 2630SOL    HW1 9331   6.241   1.608  12.154  0.3180 -0.6678  1.0648
 2630SOL    HW2 9332   6.130   1.565  12.248 -0.3513  0.6147  0.8749
 2631SOL     OW 9333   5.152   6.569  10.660  0.0549  0.0618  0.4636
 2631SOL    HW1 9334   5.234   6.544  10.617 -1.1521 -0.2893 -1.7874
 2631SOL    HW2 9335   5.123   6.489  10.704 -1.6075 -1.5382 -3.1091
 2632SOL     OW 9336   4.505   6.917   4.364 -0.0817  0.2227 -0.0074
 2632SOL    HW1 9337   4.516   7.010   4.384 -0.4064  0.3004 -0.1930
 2632SOL    HW2 9338   4.594   6.885   4.348  0.1853  0.1932  1.4161
 2633SOL     OW 9339   5.839   3.251   0.047 -0.3562 -0.0448 -0.4946
 2633SOL    HW1 9340   5.815   3.161   0.070 -0.6624  0.0155 -0.5743
 2633SOL    HW2 9341   5.934   3.253   0.053 -0.1271 -1.0075 -2.8078
 2634SOL     OW 9342   4.631   2.590   0.803 -0.2390  0.5751 -0.1790
 2634SOL    HW1 9343   4.544   2.627   0.819 -1.3793 -1.4980 -1.1661
 2634SOL    HW2 9344   4.644   2.600   0.708 -0.3521 -0.9587 -0.3826
 2635SOL     OW 9345   6.660   1.430   6.223  0.5897 -0.1850  0.3802
 2635SOL    HW1 9346   6.618   1.439   6.308 -0.5369  1.1119 -0.2730
 2635SOL    HW2 9347   6.626   1.503   6.171  2.0660 -0.3184 -0.8591
 2636SOL     OW 9348   4.674   7.213   7.891  0.1421  0.5958  0.5706
 2636SOL    HW1 9349   4.628   7.143   7.937 -2.0907  0.5973 -1.4831
 2636SOL    HW2 9350   4.649   7.293   7.937 -1.0645  0.4780  0.1421
 2637SOL     OW 9351   5.485   5.248   3.885 -0.1043 -0.2693 -0.2254
 2637SOL    HW1 9352   5.467   5.218   3.796 -0.9667 -0.5119  0.0216
 2637SOL    HW2 9353   5.567   5.205   3.909  0.2165 -0.0831 -0.9514
 2638SOL     OW 9354   3.521   6.595  11.235  0.2316 -0.5112 -0.2957
 2638SOL    HW1 9355   3.588   6.585  11.168  0.2790  1.7209 -0.6740
 2638SOL    HW2 9356   3.438   6.589  11.188  0.2119 -1.0669 -0.1931
 2639SOL     OW 9357   3.235   6.469   1.735  0.1622 -0.5486 -0.4349
 2639SOL    HW1 9358   3.164   6.430   1.786 -0.8474  2.1365  0.4183
 2639SOL    HW2 9359   3.313   6.456   1.788 -0.1156 -1.5064 -0.2536
 2640SOL     OW 9360   0.341   5.935  10.830  0.1848 -0.1343  0.6355
 2640SOL    HW1 9361   0.368   5.991  10.758 -1.6533 -0.1064 -0.0985
 2640SOL    HW2 9362   0.309   5.855  10.788 -1.4615  0.1134  1.3166
 2641SOL     OW 9363   4.332   4.651   2.465  0.6652 -0.4368  1.0545
 2641SOL    HW1 9364   4.373   4.736   2.480  1.5070 -0.6218 -0.0796
 2641SOL    HW2 9365   4.398   4.600   2.417 -0.8118 -0.7981 -0.6999
 2642SOL     OW 9366   1.389   0.070   9.000  0.1204 -0.1646  0.5454
 2642SOL    HW1 9367   1.344   0.077   9.084 -0.1752  2.1775  0.2744
 2642SOL    HW2 9368   1.456   0.138   9.003  1.4852 -1.4066 -0.3494
 2643SOL     OW 9369   5.212   2.498   7.609 -0.3969  0.0382 -1.2069
 2643SOL    HW1 9370   5.304   2.501   7.636 -0.3822 -0.1879 -1.2354
 2643SOL    HW2 9371   5.200   2.411   7.570 -0.3095  0.5168 -2.3272
 2644SOL     OW 9372   7.371   2.542  10.866  0.1845  0.3405  0.7388
 2644SOL    HW1 9373   7.289   2.591  10.875 -0.2392  0.0746 -1.2626
 2644SOL    HW2 9374   7.362   2.496  10.783  2.3566  0.2608  0.5136
 2645SOL     OW 9375   1.179   5.674   0.910  0.5002  0.5073 -0.6676
 2645SOL    HW1 9376   1.213   5.593   0.871  0.3702  0.6045 -0.9803
 2645SOL    HW2 9377   1.192   5.741   0.843  0.2682  0.6720 -0.5494
 2646SOL     OW 9378   5.862   0.887   0.343 -0.1156  0.0481  0.1932
 2646SOL    HW1 9379   5.768   0.869   0.355 -0.4070  1.6645  0.6401
 2646SOL    HW2 9380   5.867   0.932   0.259  0.4946 -1.4830 -0.6127
 2647SOL     OW 9381   6.264   2.844   4.574  0.0626 -0.3378 -0.5903
 2647SOL    HW1 9382   6.270   2.879   4.485 -0.7911 -1.7226 -1.2427
 2647SOL    HW2 9383   6.197   2.775   4.567 -0.9963  0.4260  1.4332
 2648SOL     OW 9384   5.290   0.531   5.503 -0.1408 -0.1616  0.8869
 2648SOL    HW1 9385   5.231   0.532   5.428 -0.9019  0.5832  1.4751
 2648SOL    HW2 9386   5.254   0.463   5.560 -1.1849  1.0883  1.7942
 2649SOL     OW 9387   1.467   6.249   9.742  0.0921 -0.0888 -0.2553
 2649SOL    HW1 9388   1.470   6.190   9.818  1.7203 -1.5861 -1.4056
 2649SOL    HW2 9389   1.557   6.281   9.734 -0.4890  1.5457 -0.4574
 2650SOL     OW 9390   7.405   5.029   6.892  0.0187 -0.2995 -0.0589
 2650SOL    HW1 9391   7.386   5.121   6.906 -0.9149 -0.4872 -0.0790
 2650SOL    HW2 9392   7.497   5.019   6.919 -0.1499  0.4379  0.8183
 2651SOL     OW 9393   5.507   0.074   0.740 -0.7087 -0.3133 -0.1565
 2651SOL    HW1 9394   5.508  -0.008   0.790  0.1491 -0.4444 -0.3657
 2651SOL    HW2 9395   5.593   0.113   0.757 -0.4781 -0.2601 -1.3719
 2652SOL     OW 9396   3.209   7.699   0.792 -0.3381 -0.1054  0.4798
 2652SOL    HW1 9397   3.159   7.687   0.711 -0.8142 -0.1603  0.7822
 2652SOL    HW2 9398   3.249   7.785   0.782 -2.2564  0.9191  1.1669
 2653SOL     OW 9399   0.817   6.551   6.783 -0.1947  0.7017 -0.1340
 2653SOL    HW1 9400   0.899   6.579   6.743  0.4835 -0.9241  0.0446
 2653SOL    HW2 9401   0.802   6.614   6.854  0.6674  1.2556 -0.4345
 2654SOL     OW 9402   3.807   5.723   7.569  0.3895  0.5269 -0.1536
 2654SOL    HW1 9403   3.734   5.719   7.630  0.8256  1.5774  0.4499
 2654SOL    HW2 9404   3.766   5.715   7.482 -0.4538  1.2365  0.1674
 2655SOL     OW 9405   7.951   1.385  10.101  0.6832 -0.3169 -0.1504
 2655SOL    HW1 9406   7.857   1.392  10.120  0.4476  2.4490 -1.7928
 2655SOL    HW2 9407   7.984   1.323  10.167 -2.5011 -2.6659 -0.5137
 2656SOL     OW 9408   4.738   7.449   0.259 -0.1771 -0.1533 -0.0980
 2656SOL    HW1 9409   4.651   7.437   0.220 -1.0192  0.0814  1.6055
 2656SOL    HW2 9410   4.739   7.391   0.335 -0.5432  2.8606  2.4278
 2657SOL     OW 9411   3.103   1.292   6.614  0.2485 -0.7129  0.6086
 2657SOL    HW1 9412   3.062   1.206   6.626  2.6217 -2.6271 -3.2418
 2657SOL    HW2 9413   3.197   1.275   6.615  0.8057  1.7713 -0.6577
 2658SOL     OW 9414   7.476   0.797   8.692  0.2883 -0.8128  0.0929
 2658SOL    HW1 9415   7.489   0.766   8.602  2.1385  1.4586 -0.5255
 2658SOL    HW2 9416   7.549   0.759   8.741  0.3924 -0.5127  0.1751
 2659SOL     OW 9417   5.401   4.983   8.840  0.6438  0.2218  0.0281
 2659SOL    HW1 9418   5.306   4.986   8.833  0.5392  2.7922  1.2368
 2659SOL    HW2 9419   5.432   4.991   8.750 -0.2661 -0.4727 -0.3599
 2660SOL     OW 9420   5.463   2.088   0.881  0.4397 -0.6366  0.3060
 2660SOL    HW1 9421   5.471   2.115   0.790  3.4637 -1.9409  0.0684
 2660SOL    HW2 9422   5.527   2.141   0.928  1.2321 -2.1891  1.0586
 2661SOL     OW 9423   2.183   6.739   1.491  0.2620 -0.1682  0.7575
 2661SOL    HW1 9424   2.237   6.736   1.412 -1.9677 -0.5956 -0.8684
 2661SOL    HW2 9425   2.165   6.647   1.510  0.9570 -0.0755  1.9393
 2662SOL     OW 9426   5.079   1.986   8.035  0.0277 -0.1267 -0.1693
 2662SOL    HW1 9427   5.127   1.943   7.964  0.6303  1.0382 -0.4964
 2662SOL    HW2 9428   5.121   1.954   8.115  0.8517  0.2944 -0.4286
 2663SOL     OW 9429   4.765   5.302   6.331  0.0720 -0.1288 -0.2043
 2663SOL    HW1 9430   4.806   5.220   6.306  2.9420  0.7272  1.2557
 2663SOL    HW2 9431   4.780   5.309   6.425 -0.0384  2.0914 -0.2976
 2664SOL     OW 9432   3.065   2.722  10.402 -0.2448 -0.1948  0.4530
 2664SOL    HW1 9433   3.124   2.796  10.387  0.5604 -0.8783  0.1832
 2664SOL    HW2 9434   3.015   2.714  10.321  0.4447 -0.6349  0.0690
 2665SOL     OW 9435   6.466   7.221   9.089  0.3362 -0.0440  0.1876
 2665SOL    HW1 9436   6.443   7.285   9.021  2.4539 -1.7472 -2.3497
 2665SOL    HW2 9437   6.510   7.273   9.156 -0.4018  1.5201 -0.4852
 2666SOL     OW 9438   1.131   5.091  12.319 -0.0893 -0.3692 -0.6940
 2666SOL    HW1 9439   1.137   5.157  12.249  0.8845  1.2301  0.8070
 2666SOL    HW2 9440   1.206   5.034  12.304  0.9514  0.8135 -0.1933
 2667SOL     OW 9441   6.540   2.686   8.875 -0.1405 -0.3277 -0.2705
 2667SOL    HW1 9442   6.566   2.663   8.786  0.2524 -1.7015  0.1828
 2667SOL    HW2 9443   6.456   2.642   8.888 -0.4711  0.3226 -0.1349
 2668SOL     OW 9444   2.347   6.419   8.552  0.1196 -0.1576  0.0473
 2668SOL    HW1 9445   2.271   6.361   8.546 -1.6688  2.1587 -1.4384
 2668SOL    HW2 9446   2.388   6.413   8.466 -0.7517  1.5349 -0.5314
 2669SOL     OW 9447   6.172   0.728   7.120 -0.3520 -0.3229 -0.5947
 2669SOL    HW1 9448   6.190   0.696   7.209 -0.8260  1.0990  0.0388
 2669SOL    HW2 9449   6.203   0.658   7.063  1.5011 -0.5863  0.6268
 2670SOL     OW 9450   1.856   3.031  11.049 -0.1169 -0.3794 -0.3013
 2670SOL    HW1 9451   1.832   3.123  11.055  0.0294 -0.2637 -1.2730
 2670SOL    HW2 9452   1.934   3.023  11.105  0.9183  0.4852 -1.5598
 2671SOL     OW 9453   0.449   0.230  11.552 -0.2987 -0.2403 -0.6515
 2671SOL    HW1 9454   0.371   0.185  11.520  0.4773 -1.2832 -1.1299
 2671SOL    HW2 9455   0.434   0.238  11.647 -1.4169  0.4740 -0.8742
 2672SOL     OW 9456   3.953   2.049   6.764 -0.8649 -0.1173 -0.2020
 2672SOL    HW1 9457   4.006   2.038   6.685  0.5290  0.1261  0.6659
 2672SOL    HW2 9458   3.979   1.975   6.820  0.2744  1.2379  1.1427
 2673SOL     OW 9459   2.723   2.402   3.921 -0.5799  0.0469  0.5120
 2673SOL    HW1 9460   2.640   2.448   3.910 -1.1473 -0.9880  0.3143
 2673SOL    HW2 9461   2.768   2.411   3.837  0.2242  1.9181  1.0923
 2674SOL     OW 9462   3.612   0.819   6.558 -0.0263 -0.2043  0.4103
 2674SOL    HW1 9463   3.671   0.835   6.631 -0.7789  1.5730  0.6726
 2674SOL    HW2 9464   3.525   0.835   6.593 -0.4977 -0.5429 -0.5680
 2675SOL     OW 9465   6.831   1.716   7.895  0.3824 -0.5803 -0.2003
 2675SOL    HW1 9466   6.776   1.674   7.961  1.3617 -2.4571 -0.5144
 2675SOL    HW2 9467   6.773   1.729   7.820 -0.0503 -0.9982  0.0562
 2676SOL     OW 9468   5.383   3.802  10.053  0.8922 -0.0803 -0.4792
 2676SOL    HW1 9469   5.426   3.719  10.036  1.1440  0.0437 -0.4467
 2676SOL    HW2 9470   5.399   3.855   9.975  0.5306 -0.1444 -0.6001
 2677SOL     OW 9471   4.582   1.767   9.768  0.5548  0.1213 -0.3258
 2677SOL    HW1 9472   4.659   1.709   9.775  0.2799 -0.3238 -0.9534
 2677SOL    HW2 9473   4.557   1.763   9.676  0.8350  1.6508 -0.4860
 2678SOL     OW 9474   4.570   0.965   1.224  0.0703 -0.3795 -0.4125
 2678SOL    HW1 9475   4.571   0.929   1.313 -2.3826  0.3295 -0.0343
 2678SOL    HW2 9476   4.645   0.923   1.181  1.0262 -1.1263  1.8057
 2679SOL     OW 9477   7.092   0.546   7.483  0.1537  0.2845 -0.1801
 2679SOL    HW1 9478   7.122   0.590   7.563 -1.2424  1.1309 -0.0820
 2679SOL    HW2 9479   7.127   0.457   7.490 -0.9666 -0.0666  2.0398
 2680SOL     OW 9480   7.662   5.960  11.668  0.3575 -0.1707  0.0704
 2680SOL    HW1 9481   7.726   5.905  11.623  0.3662  0.1113 -0.2594
 2680SOL    HW2 9482   7.627   5.903  11.737 -0.4577 -0.9711 -0.9688
 2681SOL     OW 9483   0.049   3.209  12.289 -0.3488 -0.4440 -0.5672
 2681SOL    HW1 9484   0.045   3.169  12.376  1.8140  1.4191  0.5080
 2681SOL    HW2 9485   0.137   3.245  12.284 -0.7719  0.4199 -3.1516
 2682SOL     OW 9486   4.355   6.337   1.105 -0.3623  0.1520  0.3601
 2682SOL    HW1 9487   4.354   6.429   1.077 -0.3254  0.5264  1.5217
 2682SOL    HW2 9488   4.286   6.295   1.053 -1.4636  1.1938  0.9192
 2683SOL     OW 9489   2.038   0.985   3.962  0.2636  0.4033 -0.5459
 2683SOL    HW1 9490   2.046   1.038   4.042 -0.7029  0.8017 -0.6954
 2683SOL    HW2 9491   2.105   1.021   3.904 -0.0155  1.1152 -0.4439
 2684SOL     OW 9492   5.318   1.168  10.557 -0.4680  1.2793  0.1648
 2684SOL    HW1 9493   5.225   1.160  10.578 -0.5985  2.0954 -0.0662
 2684SOL    HW2 9494   5.361   1.102  10.611 -1.3719 -0.4901 -1.2063
 2685SOL     OW 9495   6.430   2.047   0.359  0.6583 -0.2640  0.4064
 2685SOL    HW1 9496   6.365   2.007   0.302  0.6421  0.0499  0.2037
 2685SOL    HW2 9497   6.424   1.998   0.441 -0.7199  0.5669  0.8342
 2686SOL     OW 9498   0.050   7.601   3.368 -0.0855  0.0466 -0.2209
 2686SOL    HW1 9499  -0.008   7.556   3.306  0.2056  0.4190 -0.7719
 2686SOL    HW2 9500   0.031   7.694   3.355 -1.6561  0.0732  1.8630
 2687SOL     OW 9501   1.477   5.893   5.664  0.5383  0.1672  0.2876
 2687SOL    HW1 9502   1.513   5.981   5.669 -0.2851  0.7349 -2.2086
 2687SOL    HW2 9503   1.553   5.834   5.666  1.2592  1.0669 -0.1270
 2688SOL     OW 9504   5.733   5.187   9.256 -0.3803  0.1780 -0.2690
 2688SOL    HW1 9505   5.684   5.111   9.223 -1.6523  1.5108 -1.5735
 2688SOL    HW2 9506   5.755   5.238   9.178  0.6184  1.0916  0.5660
 2689SOL     OW 9507   0.061   0.791   6.923  0.2471  0.4386  0.0746
 2689SOL    HW1 9508   0.082   0.872   6.876 -1.9567 -0.2287 -2.2766
 2689SOL    HW2 9509   0.085   0.809   7.014  1.8805  2.9143 -0.7582
 2690SOL     OW 9510   3.913   6.794   0.345  0.1912 -0.4126  0.2626
 2690SOL    HW1 9511   3.935   6.874   0.393 -0.0299 -0.5161  0.5357
 2690SOL    HW2 9512   3.830   6.814   0.302 -0.3266 -0.8011  1.0573
 2691SOL     OW 9513   0.700   2.018   6.347 -0.1339 -0.9124  0.8169
 2691SOL    HW1 9514   0.754   2.078   6.398 -0.0602  1.0007 -1.3222
 2691SOL    HW2 9515   0.758   1.944   6.328  1.2147  0.3048  0.0244
 2692SOL     OW 9516   7.486   2.254   3.016  0.0102  0.0131  0.0095
 2692SOL    HW1 9517   7.436   2.292   2.944 -1.2560  0.3371  1.0258
 2692SOL    HW2 9518   7.513   2.168   2.984 -1.0195 -0.0807 -0.6590
 2693SOL     OW 9519   6.158   6.720   2.955  0.7049  0.4749  0.2259
 2693SOL    HW1 9520   6.228   6.710   2.891  0.6157  0.0115  0.1959
 2693SOL    HW2 9521   6.102   6.789   2.921 -0.2713 -0.8777 -1.0613
 2694SOL     OW 9522   7.714   4.897  12.165  0.1434 -0.8474 -0.0483
 2694SOL    HW1 9523   7.705   4.884  12.071 -1.6266  1.2228 -0.2471
 2694SOL    HW2 9524   7.627   4.879  12.201  0.7162 -1.3283  1.1818
 2695SOL     OW 9525   7.810   4.678   4.926 -0.0623  0.1067 -0.2904
 2695SOL    HW1 9526   7.788   4.758   4.974  1.2820  0.5213 -0.3104
 2695SOL    HW2 9527   7.885   4.703   4.871  0.0575 -1.0317 -0.6717
 2696SOL     OW 9528   0.570   1.129   2.393 -0.0466 -0.2372  0.1968
 2696SOL    HW1 9529   0.523   1.058   2.439  1.1978 -1.2758 -0.0688
 2696SOL    HW2 9530   0.662   1.117   2.419  0.3618  0.5213 -0.8521
 2697SOL     OW 9531   4.703   7.811   8.405  0.8626  0.4014 -0.4257
 2697SOL    HW1 9532   4.703   7.728   8.453 -0.1825 -0.0762 -1.2150
 2697SOL    HW2 9533   4.773   7.801   8.341  1.4268  0.5429  0.1653
 2698SOL     OW 9534   7.481   2.661   2.751 -0.1944 -0.1211 -0.3419
 2698SOL    HW1 9535   7.429   2.711   2.814 -0.0948 -0.0184 -0.3412
 2698SOL    HW2 9536   7.567   2.702   2.753 -0.5165  0.6556 -1.4365
 2699SOL     OW 9537   5.032   7.842  11.443  0.0855  0.3315  0.0374
 2699SOL    HW1 9538   5.007   7.789  11.368 -0.5175  1.6277 -0.7048
 2699SOL    HW2 9539   5.009   7.789  11.519  2.7124 -1.9676 -0.6057
 2700SOL     OW 9540   1.888   5.555  12.042 -0.0688 -0.4599  0.1545
 2700SOL    HW1 9541   1.929   5.620  12.098 -0.7359 -0.2054  0.3583
 2700SOL    HW2 9542   1.907   5.471  12.084 -2.0706 -0.1767  1.8073
 2701SOL     OW 9543   2.623   4.677   5.926  0.0732  0.8151 -0.5085
 2701SOL    HW1 9544   2.607   4.598   5.876  0.0606  0.2797  0.3234
 2701SOL    HW2 9545   2.539   4.722   5.929 -0.1272  0.4340 -0.2755
 2702SOL     OW 9546   4.703   4.352  11.179 -0.4329 -0.3662  0.2811
 2702SOL    HW1 9547   4.754   4.364  11.259 -0.6029 -0.0128  0.3400
 2702SOL    HW2 9548   4.662   4.437  11.163  1.7794  0.4356 -1.7137
 2703SOL     OW 9549   2.834   2.074   8.863 -0.1050  0.2116  0.1523
 2703SOL    HW1 9550   2.891   2.144   8.894  0.8919 -1.1506  1.5349
 2703SOL    HW2 9551   2.746   2.111   8.867  0.1472  0.7050  3.0059
 2704SOL     OW 9552   6.806   3.000   5.384  0.3511 -0.0824 -0.4775
 2704SOL    HW1 9553   6.752   3.073   5.353  0.4867 -0.4702 -1.6640
 2704SOL    HW2 9554   6.851   3.036   5.460 -0.3359  0.7622 -0.4425
 2705SOL     OW 9555   6.702   5.873   1.748  0.6401 -0.5139  0.2778
 2705SOL    HW1 9556   6.691   5.859   1.654  2.7620 -0.3478 -0.0369
 2705SOL    HW2 9557   6.694   5.967   1.760  4.7330  0.1227 -0.5255
 2706SOL     OW 9558   0.036   2.193   9.315  0.0491  0.2685  0.2643
 2706SOL    HW1 9559   0.054   2.248   9.239 -2.4635  0.3125 -0.3773
 2706SOL    HW2 9560   0.030   2.104   9.280 -1.7285  0.3629  0.2616
 2707SOL     OW 9561   2.415   0.562   1.280  0.0419  0.1243  0.0478
 2707SOL    HW1 9562   2.435   0.571   1.373  1.4666  0.0224 -0.2377
 2707SOL    HW2 9563   2.356   0.635   1.261 -0.3609  0.0701  1.0490
 2708SOL     OW 9564   0.184   4.964   1.474  0.1547 -0.2614  0.6349
 2708SOL    HW1 9565   0.214   5.029   1.537 -2.4248 -0.6779  2.4642
 2708SOL    HW2 9566   0.166   4.886   1.527  1.8857 -2.0904 -1.2951
 2709SOL     OW 9567   5.526   5.275  12.300 -0.4365  0.1356  0.5076
 2709SOL    HW1 9568   5.484   5.314  12.223 -0.5293  1.2864  1.1119
 2709SOL    HW2 9569   5.495   5.329  12.373 -1.0905 -1.4957  1.4925
 2710SOL     OW 9570   3.308   1.957   4.427 -0.2815  0.1398  0.0133
 2710SOL    HW1 9571   3.260   1.981   4.506  0.6119  0.3527  0.5029
 2710SOL    HW2 9572   3.399   1.954   4.454  0.0566  0.3629 -1.0474
 2711SOL     OW 9573   2.719   2.896   3.575 -0.1605 -0.0876 -0.4808
 2711SOL    HW1 9574   2.685   2.937   3.496  0.7308 -0.5537 -1.1316
 2711SOL    HW2 9575   2.706   2.802   3.561  1.2423 -0.2755 -0.7117
 2712SOL     OW 9576   4.520   3.289   3.596  0.1521 -0.1315 -0.2273
 2712SOL    HW1 9577   4.455   3.322   3.535 -0.6507 -0.5761  0.3691
 2712SOL    HW2 9578   4.501   3.195   3.603 -1.9841  0.3765  3.2124
 2713SOL     OW 9579   3.319   0.488  10.609  0.2757  0.1205 -0.2281
 2713SOL    HW1 9580   3.406   0.495  10.647  0.4235 -1.8137 -0.0856
 2713SOL    HW2 9581   3.295   0.578  10.586  3.2808  0.5384 -2.4474
 2714SOL     OW 9582   7.253   4.439  11.432  0.0966  0.1689  0.6381
 2714SOL    HW1 9583   7.218   4.357  11.468  0.3172 -0.8200 -1.2478
 2714SOL    HW2 9584   7.178   4.479  11.388  0.6138 -0.4688 -0.8710
 2715SOL     OW 9585   6.585   4.316   9.341 -0.4261  0.0044  0.3859
 2715SOL    HW1 9586   6.576   4.221   9.331  0.0165 -0.0587  0.5731
 2715SOL    HW2 9587   6.619   4.327   9.430 -0.2566  0.3279  0.2805
 2716SOL     OW 9588   0.850   0.455   9.281  0.5715  0.0536 -0.1636
 2716SOL    HW1 9589   0.820   0.491   9.198 -0.6220 -0.5334 -0.0035
 2716SOL    HW2 9590   0.930   0.408   9.259  0.3983  0.1067 -0.9265
 2717SOL     OW 9591   3.735   7.497   3.636 -0.2488 -0.3100 -0.0112
 2717SOL    HW1 9592   3.811   7.439   3.633 -0.7948 -1.0786  0.7697
 2717SOL    HW2 9593   3.754   7.557   3.708  1.1547  1.7216 -1.9417
 2718SOL     OW 9594   1.637   1.083  10.424 -0.3373  0.0393 -0.1043
 2718SOL    HW1 9595   1.586   1.090  10.344  0.6440  0.0523 -0.7524
 2718SOL    HW2 9596   1.573   1.061  10.492 -1.4783  1.8594 -0.5261
 2719SOL     OW 9597   5.528   2.455   3.797 -0.1715  0.0426  0.5639
 2719SOL    HW1 9598   5.527   2.489   3.708  1.6110 -0.3848  0.3516
 2719SOL    HW2 9599   5.441   2.475   3.831 -0.6697  0.7726 -1.0498
 2720SOL     OW 9600   4.194   0.012   9.166  0.4402 -0.0965  0.3825
 2720SOL    HW1 9601   4.275  -0.036   9.147  0.7775 -0.0138  1.5147
 2720SOL    HW2 9602   4.186   0.074   9.094  0.8640 -0.7544 -0.2566
 2721SOL     OW 9603   2.384   1.644   1.995  0.2500 -0.3373  0.6036
 2721SOL    HW1 9604   2.374   1.724   1.943 -0.0830 -0.6522  0.1755
 2721SOL    HW2 9605   2.434   1.672   2.072 -0.8989  0.5353  1.0599
 2722SOL     OW 9606   5.492   1.211   6.547  0.1600 -0.4079  0.4631
 2722SOL    HW1 9607   5.486   1.254   6.632 -0.6315 -0.5967  0.5142
 2722SOL    HW2 9608   5.520   1.121   6.566 -2.0570 -1.1081  0.7692
 2723SOL     OW 9609   3.935   1.990   2.418 -0.1099 -0.1037 -0.0003
 2723SOL    HW1 9610   3.924   1.944   2.335  0.8917  0.4713 -0.4750
 2723SOL    HW2 9611   3.919   2.082   2.397  4.1329  0.7077 -0.5837
 2724SOL     OW 9612   7.229   3.370   4.553  0.2164 -0.9191 -0.5889
 2724SOL    HW1 9613   7.295   3.376   4.622 -1.1624  0.1434  0.7019
 2724SOL    HW2 9614   7.168   3.442   4.571 -0.0000 -0.3664 -3.1537
 2725SOL     OW 9615   6.054   2.057   5.643 -0.1286  0.1807  0.5055
 2725SOL    HW1 9616   5.984   2.023   5.698  0.6764 -0.4764  1.1618
 2725SOL    HW2 9617   6.090   2.131   5.693 -0.4293  0.5974  0.1120
 2726SOL     OW 9618   7.720   0.607   9.553 -0.1005  0.9016  0.4097
 2726SOL    HW1 9619   7.776   0.661   9.498 -0.5992  0.3636 -0.6418
 2726SOL    HW2 9620   7.698   0.532   9.499 -0.8992  0.5339  1.2193
 2727SOL     OW 9621   2.536   1.464   6.713 -0.2743  0.0061 -0.4576
 2727SOL    HW1 9622   2.471   1.529   6.685  0.7738  1.5264  0.5050
 2727SOL    HW2 9623   2.616   1.514   6.725  0.8335 -1.6588 -0.6189
 2728SOL     OW 9624   7.293   7.862   1.934  0.1807  0.1771 -0.3696
 2728SOL    HW1 9625   7.203   7.857   1.966  0.3328 -0.4474 -0.0192
 2728SOL    HW2 9626   7.342   7.802   1.990  0.5675 -0.5169 -1.4089
 2729SOL     OW 9627   2.349   7.832  12.268  0.2047 -0.2217 -0.6281
 2729SOL    HW1 9628   2.283   7.762  12.272  0.2153 -0.2052  1.8088
 2729SOL    HW2 9629   2.432   7.785  12.267  0.1843 -0.2410 -1.5795
 2730SOL     OW 9630   0.142   7.666  11.260 -0.2980  0.3858 -0.2811
 2730SOL    HW1 9631   0.080   7.733  11.288  1.2343  2.4742 -1.5742
 2730SOL    HW2 9632   0.227   7.709  11.265  0.8781 -1.7950 -0.3031
 2731SOL     OW 9633   1.707   4.951  10.049  0.9909 -0.5228 -0.3380
 2731SOL    HW1 9634   1.792   4.959  10.005  0.3990  1.0281 -1.2998
 2731SOL    HW2 9635   1.659   5.029  10.020  0.3964  0.3529  2.7073
 2732SOL     OW 9636   0.193   7.959   4.394  0.0252  0.2161 -0.4212
 2732SOL    HW1 9637   0.109   7.961   4.349  0.1479 -1.2973 -0.7889
 2732SOL    HW2 9638   0.179   8.008   4.474 -1.1797  0.0777 -0.5272
 2733SOL     OW 9639   3.582   1.329   9.616 -0.0200 -0.0185  0.0349
 2733SOL    HW1 9640   3.622   1.379   9.546  0.3196  0.8247  0.8115
 2733SOL    HW2 9641   3.605   1.238   9.597  0.9496  0.3041 -0.3709
 2734SOL     OW 9642   6.514   1.994  11.256  0.4351 -0.1935 -0.3310
 2734SOL    HW1 9643   6.586   2.056  11.241 -1.0637  1.5344 -0.8045
 2734SOL    HW2 9644   6.503   1.993  11.351 -0.2851  1.2784 -0.3601
 2735SOL     OW 9645   5.474   3.980   2.840  0.4922 -0.3836 -0.1758
 2735SOL    HW1 9646   5.563   3.950   2.857  0.6312  0.9853  1.9112
 2735SOL    HW2 9647   5.484   4.071   2.812 -0.1645 -0.8850 -2.2116
 2736SOL     OW 9648   3.603   6.778   1.271 -0.2541  0.4824 -0.1115
 2736SOL    HW1 9649   3.562   6.846   1.324 -0.0035  1.4768 -1.1504
 2736SOL    HW2 9650   3.556   6.780   1.188 -0.0203 -0.3900 -0.2759
 2737SOL     OW 9651   0.233   6.256   4.196 -0.2034 -0.3351  0.4743
 2737SOL    HW1 9652   0.304   6.311   4.229  0.1911 -0.5694  0.0208
 2737SOL    HW2 9653   0.253   6.168   4.229  1.3452 -1.0308 -2.0256
 2738SOL     OW 9654   2.477   3.467   7.286 -0.1597  0.0762  0.2102
 2738SOL    HW1 9655   2.535   3.508   7.350  0.0327  0.6916 -0.3551
 2738SOL    HW2 9656   2.444   3.539   7.233  1.0973 -0.5824 -1.5581
 2739SOL     OW 9657   5.099   4.302   2.321  0.0084  0.2571  0.8673
 2739SOL    HW1 9658   5.019   4.350   2.300 -0.4112 -0.7479  0.1065
 2739SOL    HW2 9659   5.070   4.229   2.376  0.5697  0.5617  1.5878
 2740SOL     OW 9660   5.740   5.748   9.208 -0.0638 -0.6566 -0.1939
 2740SOL    HW1 9661   5.813   5.808   9.224 -2.3792  1.9786  1.3742
 2740SOL    HW2 9662   5.735   5.695   9.287  0.0436 -0.7266 -0.2333
 2741SOL     OW 9663   6.547   3.016   4.080 -0.1367 -0.3025  0.6128
 2741SOL    HW1 9664   6.602   3.088   4.110  1.0026 -1.0581  0.3868
 2741SOL    HW2 9665   6.458   3.053   4.078  0.5817  1.4766 -0.6969
 2742SOL     OW 9666   0.657   4.710   6.240 -0.2447 -0.1185  0.5618
 2742SOL    HW1 9667   0.684   4.620   6.224 -1.5251 -0.6770  1.3891
 2742SOL    HW2 9668   0.586   4.725   6.178  0.1269  0.4233  0.2550
 2743SOL     OW 9669   5.260   4.820   1.123  0.9569  0.1515 -0.2912
 2743SOL    HW1 9670   5.292   4.739   1.162  1.6016  0.2088 -0.6902
 2743SOL    HW2 9671   5.165   4.815   1.134  0.8271 -1.3973 -1.7049
 2744SOL     OW 9672   5.921   0.548  11.357 -0.1178  0.1534  0.2562
 2744SOL    HW1 9673   5.990   0.586  11.302  0.5736 -2.1814 -0.6028
 2744SOL    HW2 9674   5.842   0.598  11.336  0.3062 -0.1370 -2.2837
 2745SOL     OW 9675   5.277   4.478  11.983 -0.1579  0.5793  0.0643
 2745SOL    HW1 9676   5.349   4.487  11.921 -0.2333  1.8874  0.1424
 2745SOL    HW2 9677   5.314   4.432  12.058  1.2791  3.2248  1.1081
 2746SOL     OW 9678   1.326   1.886   7.832 -0.7010  0.0358 -0.3299
 2746SOL    HW1 9679   1.392   1.931   7.779 -0.0804  0.5750  0.8590
 2746SOL    HW2 9680   1.294   1.953   7.893 -1.8345 -0.4074 -0.4159
 2747SOL     OW 9681   1.321   6.138  11.781  0.0634  0.0780  0.7810
 2747SOL    HW1 9682   1.365   6.131  11.866  0.2947 -0.6500  0.6089
 2747SOL    HW2 9683   1.353   6.221  11.745  2.5933 -1.1410 -0.0268
 2748SOL     OW 9684   3.646   2.184   5.841 -0.1909 -0.0453  0.3818
 2748SOL    HW1 9685   3.656   2.204   5.934 -0.1794  0.4208  0.2839
 2748SOL    HW2 9686   3.556   2.211   5.820 -0.5663 -1.1715  0.5074
 2749SOL     OW 9687   5.231   0.832  11.144  0.0129 -0.3063 -0.4287
 2749SOL    HW1 9688   5.289   0.764  11.110  0.0083  0.1596 -1.3931
 2749SOL    HW2 9689   5.157   0.785  11.181  0.4812 -0.8635 -0.1907
 2750SOL     OW 9690   4.111   6.736   9.660 -0.0885  0.1566 -0.8933
 2750SOL    HW1 9691   4.123   6.830   9.672  0.6437  0.0672 -0.9012
 2750SOL    HW2 9692   4.017   6.722   9.675 -0.1446  0.8362 -0.5739
 2751SOL     OW 9693   6.161   5.853   4.314  0.3091 -1.0283 -0.2195
 2751SOL    HW1 9694   6.135   5.799   4.240 -1.5861 -0.9172  0.3131
 2751SOL    HW2 9695   6.164   5.942   4.279 -0.3528 -1.0053 -0.2276
 2752SOL     OW 9696   5.875   2.247  10.759 -0.2227  0.4156  0.2298
 2752SOL    HW1 9697   5.781   2.264  10.754 -0.7819 -2.3071  0.2504
 2752SOL    HW2 9698   5.888   2.166  10.710  1.8889 -0.0366  1.4075
 2753SOL     OW 9699   4.269   3.373   5.383  0.4010  0.0804 -0.0576
 2753SOL    HW1 9700   4.189   3.327   5.356 -0.1240  0.6776  0.4555
 2753SOL    HW2 9701   4.333   3.349   5.316 -0.2140 -0.3738 -0.5066
 2754SOL     OW 9702   0.786   6.638   0.637 -0.1488  0.3537  0.3015
 2754SOL    HW1 9703   0.757   6.661   0.548  0.0111  2.5806  0.7574
 2754SOL    HW2 9704   0.751   6.708   0.692  0.0895 -0.7761  1.9581
 2755SOL     OW 9705   2.799   2.126   4.018 -0.1814 -0.7980 -0.0143
 2755SOL    HW1 9706   2.799   2.137   4.113  1.7539 -1.7223  0.1504
 2755SOL    HW2 9707   2.764   2.208   3.984 -2.5274 -1.0935  1.5098
 2756SOL     OW 9708   1.954   3.525   5.725  0.0037 -0.6749  0.3490
 2756SOL    HW1 9709   1.916   3.486   5.804 -3.1597 -0.1959 -0.7897
 2756SOL    HW2 9710   2.048   3.513   5.735 -0.3460 -1.5663  3.6770
 2757SOL     OW 9711   7.834   6.736  10.920  0.3986 -0.2069  0.3248
 2757SOL    HW1 9712   7.759   6.770  10.872  1.2836 -0.1659 -1.1084
 2757SOL    HW2 9713   7.798   6.670  10.978 -0.8316  0.3448  0.2174
 2758SOL     OW 9714   5.317   4.910  11.970 -0.1513 -0.2688  0.3789
 2758SOL    HW1 9715   5.233   4.872  11.997  0.1849 -1.5584 -0.2997
 2758SOL    HW2 9716   5.319   4.899  11.875  0.4234  0.5232  0.2907
 2759SOL     OW 9717   3.878   0.226   7.470  0.4248  0.5576 -0.2440
 2759SOL    HW1 9718   3.885   0.232   7.566  1.2280  0.3167 -0.2832
 2759SOL    HW2 9719   3.901   0.135   7.450 -0.8868  0.2793 -0.5737
 2760SOL     OW 9720   7.337   7.701  12.009  0.1663  0.1537  0.1257
 2760SOL    HW1 9721   7.366   7.791  11.992 -1.0728  0.4295 -0.7305
 2760SOL    HW2 9722   7.271   7.684  11.941  0.2392 -1.3426  0.3907
 2761SOL     OW 9723   3.244   4.693  11.186  0.2049 -0.0893  0.2250
 2761SOL    HW1 9724   3.249   4.666  11.094  1.0565 -0.5212  0.3923
 2761SOL    HW2 9725   3.166   4.648  11.219 -0.2389  0.2439 -0.3362
 2762SOL     OW 9726   3.207   4.495   4.749 -0.0997  0.0015  0.0052
 2762SOL    HW1 9727   3.248   4.580   4.730  0.4677 -0.5295 -1.2641
 2762SOL    HW2 9728   3.176   4.504   4.839  1.4338  0.9925  0.4975
 2763SOL     OW 9729   4.697   5.577  11.610 -0.6216  0.9287  0.5375
 2763SOL    HW1 9730   4.761   5.625  11.556 -2.6548  2.0668 -1.0005
 2763SOL    HW2 9731   4.633   5.544  11.547 -1.1291 -0.9257  1.9571
 2764SOL     OW 9732   7.628   3.388   7.959 -0.2846  0.3523  0.1534
 2764SOL    HW1 9733   7.558   3.417   7.901  1.5775  1.3085 -1.7982
 2764SOL    HW2 9734   7.686   3.464   7.965  0.7982 -0.5276  1.3536
 2765SOL     OW 9735   6.549   4.843   8.950  0.2419  0.1643  0.5465
 2765SOL    HW1 9736   6.579   4.933   8.940 -0.2061  0.3808  1.1203
 2765SOL    HW2 9737   6.535   4.832   9.044  0.8996 -0.7031  0.5649
 2766SOL     OW 9738   7.344   7.485   2.220  0.4910 -0.4500  0.1229
 2766SOL    HW1 9739   7.318   7.416   2.159 -1.9335  0.6451 -0.2025
 2766SOL    HW2 9740   7.365   7.439   2.301 -1.0619 -1.6009 -0.0887
 2767SOL     OW 9741   1.319   1.068   0.689 -0.2939  0.4893  0.1584
 2767SOL    HW1 9742   1.339   0.994   0.631 -0.0409  1.0418 -0.4651
 2767SOL    HW2 9743   1.291   1.138   0.631  1.0865  1.4332  0.5864
 2768SOL     OW 9744   6.706   1.951  10.959  0.0526 -0.5183  0.2032
 2768SOL    HW1 9745   6.696   1.978  11.050  1.9550 -2.9020  1.2299
 2768SOL    HW2 9746   6.741   2.029  10.915 -1.9095  1.0040  1.2010
 2769SOL     OW 9747   0.410   0.760   3.236  0.7063  0.1730  0.4730
 2769SOL    HW1 9748   0.475   0.713   3.185 -0.3014  0.0157 -0.7004
 2769SOL    HW2 9749   0.458   0.834   3.273  1.6463 -0.1727 -0.0127
 2770SOL     OW 9750   2.202   2.809   9.292  0.2297  0.7967 -0.5226
 2770SOL    HW1 9751   2.135   2.743   9.304 -0.4195  1.7187  1.3662
 2770SOL    HW2 9752   2.268   2.767   9.236  0.0880 -1.6134  0.9723
 2771SOL     OW 9753   1.944   5.139  11.128 -0.0631  0.1782 -0.4388
 2771SOL    HW1 9754   1.943   5.231  11.099 -0.0205  0.0677 -0.7932
 2771SOL    HW2 9755   1.853   5.110  11.121  0.3285 -0.6594 -3.1034
 2772SOL     OW 9756   2.261   7.736   2.835 -0.4295 -0.0143 -0.3329
 2772SOL    HW1 9757   2.294   7.702   2.751  0.0523  1.2566 -0.6850
 2772SOL    HW2 9758   2.303   7.822   2.844  1.1967 -0.9326  2.2095
 2773SOL     OW 9759   7.723   5.139  11.778 -0.3356 -0.2250  0.7770
 2773SOL    HW1 9760   7.633   5.166  11.763  0.3016  3.2883  2.2459
 2773SOL    HW2 9761   7.774   5.186  11.712  0.6123 -0.4758  1.3034
 2774SOL     OW 9762   5.957   2.255  11.616 -0.0804  0.1849  0.3188
 2774SOL    HW1 9763   5.928   2.336  11.656  0.1340  0.4351 -0.0298
 2774SOL    HW2 9764   6.031   2.227  11.670  0.4623  0.7300 -0.1331
 2775SOL     OW 9765   7.686   4.712   8.518  0.6518 -0.1469  0.0733
 2775SOL    HW1 9766   7.704   4.703   8.424 -1.8766 -3.4850 -0.2495
 2775SOL    HW2 9767   7.598   4.749   8.522  1.2589  1.2968  1.2447
 2776SOL     OW 9768   0.887   1.524   4.514  0.4124  0.0669 -0.1790
 2776SOL    HW1 9769   0.813   1.540   4.572  0.5873 -1.0425  0.3815
 2776SOL    HW2 9770   0.958   1.576   4.551 -0.0283  0.9851 -0.6081
 2777SOL     OW 9771   2.600   4.362   8.733  0.0470  0.4916  0.6117
 2777SOL    HW1 9772   2.555   4.280   8.714 -1.7820  1.6828 -0.5168
 2777SOL    HW2 9773   2.639   4.349   8.820 -0.0664 -1.5897  0.3911
 2778SOL     OW 9774   5.881   1.616   4.535 -0.1276 -0.0777 -0.2513
 2778SOL    HW1 9775   5.928   1.610   4.451  1.5429 -1.3280  0.7011
 2778SOL    HW2 9776   5.900   1.704   4.566 -0.4511  0.2682 -1.0046
 2779SOL     OW 9777   2.367   3.880   4.867 -0.1385  0.0266  0.0217
 2779SOL    HW1 9778   2.328   3.908   4.950 -2.3278 -0.1516 -0.8890
 2779SOL    HW2 9779   2.412   3.958   4.834 -3.3524  1.6562 -0.8812
 2780SOL     OW 9780   5.648   1.235  11.469  0.4934 -0.0064 -0.8997
 2780SOL    HW1 9781   5.558   1.263  11.488  0.2502 -0.0444 -1.8907
 2780SOL    HW2 9782   5.663   1.266  11.379  0.8034 -1.5825 -1.4185
 2781SOL     OW 9783   5.743   2.460   4.510 -0.0691  0.6531  0.0500
 2781SOL    HW1 9784   5.806   2.514   4.463 -0.5889 -0.8534 -2.5867
 2781SOL    HW2 9785   5.693   2.523   4.563  0.5829  2.5050 -1.3947
 2782SOL     OW 9786   0.641   3.557   6.497  0.2413  0.1961  0.2212
 2782SOL    HW1 9787   0.572   3.514   6.447 -1.5275  0.6765  2.1060
 2782SOL    HW2 9788   0.659   3.638   6.449 -0.4426  0.0093 -0.3598
 2783SOL     OW 9789   4.153   1.167   3.026  0.3392 -0.0756  0.6167
 2783SOL    HW1 9790   4.237   1.202   2.995  0.7894 -0.6070  1.2018
 2783SOL    HW2 9791   4.163   1.162   3.122 -0.0698 -0.8564  0.6305
 2784SOL     OW 9792   0.019   3.510   6.711  0.1425  0.0248  0.0842
 2784SOL    HW1 9793  -0.072   3.505   6.741 -0.4389 -1.1464 -1.6709
 2784SOL    HW2 9794   0.023   3.594   6.664 -0.1763 -0.1290 -0.2250
 2785SOL     OW 9795   4.700   1.342   1.639 -0.3061 -0.4382 -0.1887
 2785SOL    HW1 9796   4.654   1.413   1.593 -2.2245 -0.6688  1.2472
 2785SOL    HW2 9797   4.772   1.386   1.684 -1.0184  0.5060  0.0724
 2786SOL     OW 9798   7.060   4.184  10.696 -0.0499 -0.1695 -0.1202
 2786SOL    HW1 9799   7.083   4.092  10.691  1.4628  0.1732 -0.1136
 2786SOL    HW2 9800   7.137   4.225  10.736 -0.9123  1.0138  0.3890
 2787SOL     OW 9801   1.000   6.666  10.856  0.2631  0.0281  0.5217
 2787SOL    HW1 9802   1.058   6.741  10.846 -0.3820  0.7523  2.0437
 2787SOL    HW2 9803   1.005   6.644  10.949 -1.4761 -0.2398  0.5777
 2788SOL     OW 9804   4.351   2.857   5.487 -0.2796 -0.2318  0.3271
 2788SOL    HW1 9805   4.263   2.874   5.521  0.2455  1.5722  0.8917
 2788SOL    HW2 9806   4.343   2.775   5.439 -1.6996 -1.3962  2.4332
 2789SOL     OW 9807   1.119   7.910  11.276 -0.5355 -0.1689 -0.1405
 2789SOL    HW1 9808   1.195   7.943  11.324 -1.2672 -0.8829  1.6128
 2789SOL    HW2 9809   1.139   7.819  11.257 -0.3615  0.0390 -0.9822
 2790SOL     OW 9810   2.367   3.637   4.290 -0.4494  0.0530 -0.1146
 2790SOL    HW1 9811   2.303   3.602   4.228 -0.4739 -1.8536  0.9378
 2790SOL    HW2 9812   2.427   3.565   4.306  0.8380  1.2114  0.4118
 2791SOL     OW 9813   5.535   3.989   0.929 -0.0640 -0.0824 -0.1721
 2791SOL    HW1 9814   5.537   4.054   0.999  0.4096 -0.2412 -0.0352
 2791SOL    HW2 9815   5.466   4.020   0.870 -2.8629 -1.6645  2.0066
 2792SOL     OW 9816   3.404   7.594   5.131  0.2066 -0.3016  0.1886
 2792SOL    HW1 9817   3.395   7.502   5.103 -2.1636 -0.4438  1.1782
 2792SOL    HW2 9818   3.489   7.597   5.175 -0.3562 -2.4766  1.5955
 2793SOL     OW 9819   1.452   1.357  11.808 -1.0626  0.0297 -0.3834
 2793SOL    HW1 9820   1.513   1.284  11.820 -0.2758  0.8002  0.4986
 2793SOL    HW2 9821   1.441   1.393  11.896 -2.1056  0.4638 -0.6786
 2794SOL     OW 9822   7.018   6.033   1.356  0.1780 -0.2670  0.0990
 2794SOL    HW1 9823   7.059   5.948   1.341  1.4101  0.1284  1.0831
 2794SOL    HW2 9824   6.926   6.020   1.332  0.6601 -1.4308 -1.2791
 2795SOL     OW 9825   2.111   6.810   6.393  0.1397 -0.0287  0.4167
 2795SOL    HW1 9826   2.033   6.845   6.436 -0.0414  0.8356 -0.6026
 2795SOL    HW2 9827   2.146   6.747   6.457 -0.6881  0.4721  1.4019
 2796SOL     OW 9828   1.726   4.352  11.846  0.3348 -0.4731  0.0828
 2796SOL    HW1 9829   1.777   4.433  11.841  0.7758 -0.7852 -0.5124
 2796SOL    HW2 9830   1.678   4.360  11.928 -1.1119  1.2624 -0.8566
 2797SOL     OW 9831   2.064   7.932   1.463  0.3231  0.1356 -0.2151
 2797SOL    HW1 9832   2.019   7.991   1.523  0.1197  0.2711 -0.4994
 2797SOL    HW2 9833   2.097   7.861   1.519  1.6222  1.1144  0.3331
 2798SOL     OW 9834   3.179   2.450   7.091  0.0553 -0.1207  0.3852
 2798SOL    HW1 9835   3.240   2.376   7.097  0.7132  0.4593  1.0510
 2798SOL    HW2 9836   3.191   2.497   7.174 -1.3630 -0.0370  0.5612
 2799SOL     OW 9837   4.903   0.243   1.615 -0.2793 -0.1150 -0.0510
 2799SOL    HW1 9838   4.992   0.229   1.646 -0.3770 -0.4449  0.0915
 2799SOL    HW2 9839   4.902   0.202   1.528 -0.7302 -1.5771  0.6113
 2800SOL     OW 9840   3.687   6.575   4.526 -0.0172  0.5678  0.2635
 2800SOL    HW1 9841   3.606   6.622   4.506 -0.3821  1.0264  2.5940
 2800SOL    HW2 9842   3.660   6.484   4.538 -0.4445  0.9368  2.3179
 2801SOL     OW 9843   6.771   2.202   8.343 -0.0056  0.0802  0.2785
 2801SOL    HW1 9844   6.693   2.215   8.289  0.6145  0.6567 -0.5067
 2801SOL    HW2 9845   6.840   2.252   8.298  0.4547  0.8833  1.8031
 2802SOL     OW 9846   4.656   0.105   5.156  0.4680  0.0351  0.5420
 2802SOL    HW1 9847   4.664   0.011   5.169  1.4666 -0.0654 -0.6107
 2802SOL    HW2 9848   4.739   0.141   5.187  0.3104  0.4792  0.4649
 2803SOL     OW 9849   4.720   7.396   0.574 -0.5317 -0.3172 -0.1927
 2803SOL    HW1 9850   4.745   7.338   0.646 -1.7157 -0.0202  0.4895
 2803SOL    HW2 9851   4.802   7.419   0.532  0.1565 -0.7877  0.8453
 2804SOL     OW 9852   6.447   7.484   0.746  0.6719 -0.8318  0.0209
 2804SOL    HW1 9853   6.459   7.535   0.666  0.1848  1.0049  1.0460
 2804SOL    HW2 9854   6.471   7.395   0.722  2.1175 -0.0293 -1.7276
 2805SOL     OW 9855   7.261   2.091   8.677  0.2565  0.2003 -0.1453
 2805SOL    HW1 9856   7.169   2.062   8.682  0.5425 -0.5331  2.4364
 2805SOL    HW2 9857   7.266   2.164   8.739  1.3130  0.5977 -0.6862
 2806SOL     OW 9858   1.616   1.164  11.972  0.0130 -0.1945 -0.1477
 2806SOL    HW1 9859   1.622   1.190  12.064  0.8015  2.0041 -0.7720
 2806SOL    HW2 9860   1.578   1.076  11.975  0.0720 -0.2073  2.2689
 2807SOL     OW 9861   1.876   3.155   1.527 -0.9387 -0.9687 -0.4051
 2807SOL    HW1 9862   1.911   3.066   1.538 -0.3310 -0.4198  4.2264
 2807SOL    HW2 9863   1.931   3.193   1.458 -0.0290 -3.5710 -1.2771
 2808SOL     OW 9864   2.439   0.275  10.818 -0.1991 -0.2642 -0.5899
 2808SOL    HW1 9865   2.508   0.340  10.801  0.2409 -0.5752 -0.0272
 2808SOL    HW2 9866   2.481   0.211  10.875 -0.4766 -1.3256 -1.5582
 2809SOL     OW 9867   5.406   0.403  10.592 -0.5282  0.4206  0.1240
 2809SOL    HW1 9868   5.341   0.333  10.594 -0.0597 -0.0401 -0.3463
 2809SOL    HW2 9869   5.358   0.482  10.614 -1.1983  0.0484  0.0094
 2810SOL     OW 9870   5.021   6.240   5.273 -0.1033  0.2490 -0.4452
 2810SOL    HW1 9871   4.925   6.237   5.273 -0.0894 -0.6289  0.3127
 2810SOL    HW2 9872   5.047   6.179   5.342  0.9790  1.3227  0.1372
 2811SOL     OW 9873   7.759   4.572   9.112 -0.2670 -0.2243 -0.4187
 2811SOL    HW1 9874   7.830   4.607   9.057  0.2500 -0.9337 -0.2153
 2811SOL    HW2 9875   7.772   4.615   9.197  0.3372 -0.8510 -0.1843
 2812SOL     OW 9876   6.275   4.645   9.564  0.1694 -0.8195 -0.5831
 2812SOL    HW1 9877   6.279   4.607   9.651 -1.5616 -0.6040 -0.3678
 2812SOL    HW2 9878   6.295   4.738   9.577  2.6966 -1.2535 -0.8656
 2813SOL     OW 9879   4.055   6.880   6.117 -0.3299  0.1657 -0.2659
 2813SOL    HW1 9880   4.145   6.853   6.099 -0.3241  0.1093 -0.1562
 2813SOL    HW2 9881   4.056   6.975   6.107  0.2407  0.4258  1.7521
 2814SOL     OW 9882   4.222   3.305   8.694 -0.1139 -0.2467 -0.1272
 2814SOL    HW1 9883   4.206   3.258   8.612 -1.0069  0.1735 -0.2043
 2814SOL    HW2 9884   4.255   3.238   8.754 -0.8913 -0.8861 -0.3865
 2815SOL     OW 9885   1.657   1.874  10.691 -0.2486 -0.4571  0.1776
 2815SOL    HW1 9886   1.567   1.842  10.682  0.1486 -1.3131 -1.0345
 2815SOL    HW2 9887   1.696   1.859  10.605  1.5407 -1.6412  1.1431
 2816SOL     OW 9888   0.661   4.919  10.785  0.1838  0.1239  0.2849
 2816SOL    HW1 9889   0.745   4.880  10.811  0.1983  0.0620  0.1437
 2816SOL    HW2 9890   0.684   4.981  10.716  0.2711  1.0026  1.0794
 2817SOL     OW 9891   0.835   4.299   7.108  0.5927  0.0494 -0.2462
 2817SOL    HW1 9892   0.920   4.274   7.143  0.7343  1.6080  0.6034
 2817SOL    HW2 9893   0.797   4.355   7.175 -0.4671  0.5852 -1.2620
 2818SOL     OW 9894   4.093   6.541   1.869  0.0540 -0.0278 -0.0442
 2818SOL    HW1 9895   4.024   6.533   1.803 -0.2391 -1.7304  0.4228
 2818SOL    HW2 9896   4.123   6.632   1.861  0.2741 -0.2710 -2.7267
 2819SOL     OW 9897   2.796   4.079   7.266  0.6106 -0.2507 -0.2415
 2819SOL    HW1 9898   2.782   3.986   7.281  0.7808 -0.3008 -0.3983
 2819SOL    HW2 9899   2.785   4.119   7.352 -2.3378 -0.0529 -0.5840
 2820SOL     OW 9900   1.198   2.943   7.873 -0.1449  0.3524  0.4702
 2820SOL    HW1 9901   1.184   3.017   7.813 -2.0140  0.2914  0.7808
 2820SOL    HW2 9902   1.126   2.884   7.855  2.1713 -2.2909 -0.9527
 2821SOL     OW 9903   5.493   1.912   9.842 -0.0255  0.1704 -0.1384
 2821SOL    HW1 9904   5.504   1.947   9.754 -0.9468 -1.9560 -1.1804
 2821SOL    HW2 9905   5.441   1.978   9.888 -0.1495  0.9937 -1.4137
 2822SOL     OW 9906   6.410   4.510   1.018  0.3033  0.3523  0.2300
 2822SOL    HW1 9907   6.400   4.604   1.001 -1.0557 -0.0328 -1.4076
 2822SOL    HW2 9908   6.503   4.493   1.002  0.0640  0.9706 -2.3712
 2823SOL     OW 9909   6.864   0.245   3.587  0.1506  0.1505 -0.2046
 2823SOL    HW1 9910   6.859   0.305   3.661 -0.9676  0.6921 -0.7008
 2823SOL    HW2 9911   6.779   0.252   3.544  1.7635  2.2986 -3.4847
 2824SOL     OW 9912   6.135   7.956   7.916 -0.1535 -0.4332 -0.1605
 2824SOL    HW1 9913   6.147   7.896   7.842  0.0075  0.4529 -0.8679
 2824SOL    HW2 9914   6.081   8.027   7.881 -0.6714 -0.3591  0.7748
 2825SOL     OW 9915   5.301   6.966   2.154  0.0452 -0.3092  0.0726
 2825SOL    HW1 9916   5.270   6.972   2.064  0.7259  1.4517 -0.0854
 2825SOL    HW2 9917   5.225   6.990   2.207 -0.1185 -0.5027 -0.0727
 2826SOL     OW 9918   1.020   4.706   8.498  0.7584 -0.1657 -0.4272
 2826SOL    HW1 9919   0.953   4.670   8.555 -0.0687 -1.0129 -1.8728
 2826SOL    HW2 9920   0.983   4.789   8.467  0.5117 -0.4643 -0.9483
 2827SOL     OW 9921   0.001   4.416   7.985 -0.1748 -0.1943 -0.8902
 2827SOL    HW1 9922  -0.023   4.376   8.069 -0.1077 -3.7368 -2.3632
 2827SOL    HW2 9923   0.090   4.447   7.997 -0.4097 -0.0379  0.5359
 2828SOL     OW 9924   2.495   7.696   9.307  0.0042 -0.2906  0.3635
 2828SOL    HW1 9925   2.489   7.649   9.390  3.1439 -0.1678  0.8044
 2828SOL    HW2 9926   2.517   7.786   9.332  0.0825 -0.0311 -0.5950
 2829SOL     OW 9927   4.419   4.962   3.707 -0.3659  0.0603 -0.2329
 2829SOL    HW1 9928   4.364   5.039   3.713 -0.2173  0.1906 -0.5281
 2829SOL    HW2 9929   4.494   4.981   3.762 -0.3350  0.1201 -0.2964
 2830SOL     OW 9930   3.289   3.398   2.746 -0.3543  0.5054  0.6665
 2830SOL    HW1 9931   3.281   3.359   2.833  0.9790 -0.9256  0.1973
 2830SOL    HW2 9932   3.238   3.340   2.689  0.2437  0.3927  0.2290
 2831SOL     OW 9933   7.509   2.755   3.122  0.8971 -0.5966 -0.2051
 2831SOL    HW1 9934   7.508   2.827   3.059 -1.9053 -0.1817  0.1890
 2831SOL    HW2 9935   7.417   2.733   3.134  1.4122 -1.4756  2.8337
 2832SOL     OW 9936   7.259   2.458   8.664  0.1316  0.0980  0.5304
 2832SOL    HW1 9937   7.189   2.501   8.713  1.4520  3.2374 -0.0518
 2832SOL    HW2 9938   7.338   2.476   8.715  0.8637 -0.9932 -0.1880
 2833SOL     OW 9939   4.346   2.613   3.663 -0.0786  0.5788  0.5797
 2833SOL    HW1 9940   4.266   2.612   3.610 -0.5671 -1.2735  1.2947
 2833SOL    HW2 9941   4.417   2.613   3.598 -0.6461  1.1650 -0.0611
 2834SOL     OW 9942   2.764   5.131   8.341 -0.7175 -0.0989  0.2812
 2834SOL    HW1 9943   2.721   5.208   8.378 -1.2547  0.4578 -1.4197
 2834SOL    HW2 9944   2.754   5.141   8.247  2.0100 -0.6267 -0.1389
 2835SOL     OW 9945   1.201   1.311   4.631  0.0793  0.0621  0.3359
 2835SOL    HW1 9946   1.146   1.341   4.558  0.5691  1.1803  0.4059
 2835SOL    HW2 9947   1.198   1.383   4.694  1.6829  0.1937  0.3021
 2836SOL     OW 9948   2.703   4.283   2.722  0.2850 -0.2096  0.1183
 2836SOL    HW1 9949   2.681   4.374   2.704 -1.4293 -0.5337  0.3401
 2836SOL    HW2 9950   2.739   4.250   2.640  0.5287  0.5484 -0.0890
 2837SOL     OW 9951   1.748   0.077   5.198  0.0948  0.3808 -0.3636
 2837SOL    HW1 9952   1.751   0.173   5.199 -0.3708  0.3953  0.0959
 2837SOL    HW2 9953   1.832   0.050   5.234 -0.7129  0.6541  1.8885
 2838SOL     OW 9954   5.258   2.495   0.755  0.0136  0.0394 -0.2716
 2838SOL    HW1 9955   5.342   2.529   0.784  1.8508 -2.6558 -1.9213
 2838SOL    HW2 9956   5.222   2.564   0.699  1.8233  0.7155 -0.6810
 2839SOL     OW 9957   6.440   3.179  12.189  0.3487 -0.1399  0.3542
 2839SOL    HW1 9958   6.365   3.238  12.202 -0.0031 -0.9191  2.1676
 2839SOL    HW2 9959   6.484   3.177  12.274  1.2180 -1.3384 -0.1007
 2840SOL     OW 9960   2.466   4.272  11.920  0.0830  0.6200  0.1324
 2840SOL    HW1 9961   2.426   4.356  11.899  1.0422  1.0266 -0.1143
 2840SOL    HW2 9962   2.486   4.278  12.013 -0.9740  0.1720  0.4047
 2841SOL     OW 9963   0.796   5.212   3.660  0.2394 -0.8802 -0.4884
 2841SOL    HW1 9964   0.890   5.219   3.643  0.6061 -0.1319  1.5832
 2841SOL    HW2 9965   0.756   5.270   3.596  1.4050  0.6926  0.1396
 2842SOL     OW 9966   3.045   2.322   9.089 -0.3911 -0.2452  0.4824
 2842SOL    HW1 9967   3.056   2.396   9.148 -1.4871 -0.4611  0.9795
 2842SOL    HW2 9968   2.970   2.347   9.034 -2.3734 -1.9416  2.2390
 2843SOL     OW 9969   4.756   3.617   2.514 -0.3130 -0.2830  0.2334
 2843SOL    HW1 9970   4.687   3.642   2.452  1.6595  0.7521 -1.6818
 2843SOL    HW2 9971   4.816   3.564   2.461  0.6910 -0.6217  1.6856
 2844SOL     OW 9972   3.783   7.808   2.559 -0.0271  0.3341  0.3457
 2844SOL    HW1 9973   3.700   7.762   2.564 -0.4783  0.9264 -1.1178
 2844SOL    HW2 9974   3.823   7.776   2.478  1.0310  0.2985  0.8600
 2845SOL     OW 9975   7.271   5.616   6.267  0.0888  0.2333  0.4050
 2845SOL    HW1 9976   7.362   5.625   6.240 -0.1131 -0.0891 -0.3994
 2845SOL    HW2 9977   7.225   5.685   6.219 -0.0545  0.5923  1.0386
 2846SOL     OW 9978   3.944   0.167   5.123  0.2681 -0.2087 -0.0518
 2846SOL    HW1 9979   3.945   0.139   5.032  0.3234 -1.4203  0.3090
 2846SOL    HW2 9980   3.855   0.201   5.136  0.4321  0.5024 -0.6945
 2847SOL     OW 9981   5.790   7.386   3.121 -0.1699  0.7110  0.2924
 2847SOL    HW1 9982   5.724   7.373   3.053 -1.2329  1.3981  1.1588
 2847SOL    HW2 9983   5.758   7.461   3.171  1.5850  1.4474  0.3778
 2848SOL     OW 9984   4.572   6.006   6.319  0.3417 -0.0202 -0.3831
 2848SOL    HW1 9985   4.524   5.968   6.393  1.9677  0.4371  0.9561
 2848SOL    HW2 9986   4.546   5.952   6.244 -1.9396 -0.0348  0.3258
 2849SOL     OW 9987   6.204   6.403   4.792 -0.0075 -0.4993 -0.2415
 2849SOL    HW1 9988   6.236   6.463   4.859  1.1340 -2.6465  1.2533
 2849SOL    HW2 9989   6.281   6.354   4.764 -0.6588 -0.4040 -2.4011
 2850SOL     OW 9990   1.689   4.632   5.578  0.1735 -0.7351 -0.3413
 2850SOL    HW1 9991   1.677   4.655   5.670  1.7597  1.2696 -0.5764
 2850SOL    HW2 9992   1.774   4.587   5.576  2.5367  3.3290 -1.3144
 2851SOL     OW 9993   1.194   1.494   4.853  0.0129 -0.4085 -0.5869
 2851SOL    HW1 9994   1.278   1.451   4.872  0.0315 -0.5080 -0.8931
 2851SOL    HW2 9995   1.179   1.552   4.928 -1.1277 -2.6195  1.0639
 2852SOL     OW 9996   3.021   7.856   6.289 -0.3939 -0.4505 -0.2680
 2852SOL    HW1 9997   3.043   7.835   6.379 -0.4628 -0.3825 -0.2360
 2852SOL    HW2 9998   3.014   7.770   6.246 -1.4444 -0.5352  0.0414
 2853SOL     OW 9999   3.733   5.674   4.367  0.0957  0.2827 -0.0027
 2853SOL    HW110000   3.726   5.670   4.271 -1.9721 -0.2921  0.1190
 2853SOL    HW210001   3.665   5.736   4.393  1.4554  1.3821  1.0541
 2854SOL     OW10002   1.229   2.123   5.764  0.1308 -0.3418 -0.6551
 2854SOL    HW110003   1.266   2.120   5.853  0.8958 -0.0475 -0.9520
 2854SOL    HW210004   1.142   2.083   5.773  0.0887 -0.0722  0.2766
 2855SOL     OW10005   2.706   7.736  11.875  0.4592 -0.0276  0.2135
 2855SOL    HW110006   2.664   7.755  11.791  0.7003  0.5617  0.2221
 2855SOL    HW210007   2.701   7.641  11.883 -0.2413 -0.0263 -0.1129
 2856SOL     OW10008   4.146   2.622   3.499 -0.1388  0.1713 -0.8111
 2856SOL    HW110009   4.072   2.562   3.510  0.0766  0.0725  0.1516
 2856SOL    HW210010   4.107   2.709   3.501 -0.0880  0.1892  1.2645
 2857SOL     OW10011   0.125   2.603  11.558  0.0869  0.5132  0.1473
 2857SOL    HW110012   0.106   2.645  11.474  0.7854  1.0313  0.2426
 2857SOL    HW210013   0.042   2.565  11.584  0.1522 -0.7740 -1.3957
 2858SOL     OW10014   7.187   2.531   1.435  0.2456  0.1774  0.3679
 2858SOL    HW110015   7.099   2.505   1.407  0.9735 -1.1540 -0.7461
 2858SOL    HW210016   7.174   2.562   1.525 -1.7941  2.5652 -0.6026
 2859SOL     OW10017   7.223   1.474   0.163 -0.2704 -0.4174  0.0595
 2859SOL    HW110018   7.286   1.418   0.208 -0.2112  0.3960  1.0363
 2859SOL    HW210019   7.275   1.519   0.096  0.1088 -0.1051  0.5516
 2860SOL     OW10020   5.061   0.743   4.444 -0.3278 -0.0048  0.2711
 2860SOL    HW110021   5.143   0.771   4.402 -1.1113  1.5674 -0.2610
 2860SOL    HW210022   5.088   0.717   4.532  0.9752 -1.0270 -0.3874
 2861SOL     OW10023   0.550   2.928   0.324 -0.0761 -0.1169  0.4248
 2861SOL    HW110024   0.641   2.957   0.322  0.0407 -0.3663  1.5144
 2861SOL    HW210025   0.550   2.851   0.380 -1.0045  0.0937  0.7404
 2862SOL     OW10026   1.482   2.148   3.259 -0.3473 -0.2181 -0.1565
 2862SOL    HW110027   1.442   2.226   3.222  0.3682 -0.4955 -1.5506
 2862SOL    HW210028   1.451   2.147   3.350 -0.6203  1.4936 -0.1941
 2863SOL     OW10029   7.787   7.718   9.078 -0.5096  0.5033 -0.0609
 2863SOL    HW110030   7.717   7.705   9.141  0.4997 -0.8912  0.8191
 2863SOL    HW210031   7.746   7.700   8.993 -0.9189 -1.8192  0.5459
 2864SOL     OW10032   5.535   4.868  10.972  0.5905 -0.1137  0.2177
 2864SOL    HW110033   5.568   4.779  10.960  1.3846  0.2541 -0.4163
 2864SOL    HW210034   5.611   4.917  11.004  0.7817  0.8182 -1.5518
 2865SOL     OW10035   3.100   5.558   1.878 -0.2907  0.9800 -0.1784
 2865SOL    HW110036   3.164   5.487   1.876  0.2847  1.4923 -0.3291
 2865SOL    HW210037   3.015   5.514   1.877  0.0187  0.3105 -2.3618
 2866SOL     OW10038   2.966   6.805   5.830 -0.1277  0.2672 -0.3428
 2866SOL    HW110039   3.021   6.767   5.899  0.2201  1.1493 -0.1206
 2866SOL    HW210040   3.020   6.803   5.752 -1.1475 -2.4058 -1.0767
 2867SOL     OW10041   5.197   5.818   3.855 -0.7038 -0.0387 -0.2134
 2867SOL    HW110042   5.184   5.830   3.950 -1.2009 -2.4541  0.0931
 2867SOL    HW210043   5.283   5.856   3.838  0.5279 -1.7020  1.7445
 2868SOL     OW10044   2.149   2.647   0.173  0.3221 -0.2553 -1.0315
 2868SOL    HW110045   2.119   2.558   0.153 -0.1384 -0.7554  1.5254
 2868SOL    HW210046   2.074   2.688   0.215  1.1819  0.6822 -0.3899
 2869SOL     OW10047   5.905   0.394   8.542  0.1709  0.1852 -0.9765
 2869SOL    HW110048   5.860   0.477   8.530 -0.1413  0.0609 -0.6671
 2869SOL    HW210049   5.835   0.329   8.543  0.0178  0.2513  2.5514
 2870SOL     OW10050   6.014   6.992   6.771 -0.4393 -0.5376  0.0354
 2870SOL    HW110051   6.053   7.051   6.706  1.0357 -0.3447  1.0542
 2870SOL    HW210052   5.920   7.007   6.762 -0.1464  1.8068  0.0545
 2871SOL     OW10053   3.897   4.853   3.520 -0.1533 -0.1028  0.3381
 2871SOL    HW110054   3.824   4.907   3.490 -1.2386 -0.8088  1.6253
 2871SOL    HW210055   3.858   4.769   3.542  1.0617 -0.5204  1.0030
 2872SOL     OW10056   3.676   0.943   3.833 -0.5182  0.7616  0.3951
 2872SOL    HW110057   3.671   0.896   3.916  0.1921  0.9157  0.5301
 2872SOL    HW210058   3.697   0.875   3.769 -1.9347  0.4917  0.1852
 2873SOL     OW10059   1.301   6.145   4.130 -0.1969  0.2566 -0.5007
 2873SOL    HW110060   1.228   6.204   4.112 -1.2682 -0.1032  2.1340
 2873SOL    HW210061   1.379   6.202   4.128 -0.7264  0.9676 -1.7355
 2874SOL     OW10062   3.210   0.008   4.666  0.0019  0.2827  0.3442
 2874SOL    HW110063   3.191  -0.071   4.716  0.6135  0.9454  1.6732
 2874SOL    HW210064   3.133   0.064   4.680  1.1132  1.4068  2.5524
 2875SOL     OW10065   4.516   5.553   7.481  0.7522  0.6549 -0.2959
 2875SOL    HW110066   4.498   5.474   7.430  0.9916  0.5509 -0.2225
 2875SOL    HW210067   4.609   5.569   7.467  1.1881 -0.2527  1.3270
 2876SOL     OW10068   0.880   6.687  10.123 -0.0620 -0.4961  0.2500
 2876SOL    HW110069   0.818   6.614  10.113 -1.4411  0.3738  1.7904
 2876SOL    HW210070   0.832   6.750  10.177  0.8741  1.8089 -1.4957
 2877SOL     OW10071   2.845   7.667   3.033 -0.7083 -0.0368  0.1347
 2877SOL    HW110072   2.859   7.709   3.117  1.6418 -0.3821  0.0053
 2877SOL    HW210073   2.775   7.717   2.992 -0.5589  1.3689  1.5027
 2878SOL     OW10074   2.040   2.535   4.832  0.3874 -0.0708 -0.1737
 2878SOL    HW110075   2.023   2.452   4.787  0.8252 -0.2401 -0.0376
 2878SOL    HW210076   2.135   2.538   4.840  0.2829 -0.5392  1.6645
 2879SOL     OW10077   7.452   2.872   6.700 -0.3971 -1.1470  0.8257
 2879SOL    HW110078   7.479   2.850   6.789  0.7590 -0.6352  0.6224
 2879SOL    HW210079   7.364   2.908   6.709 -0.2491 -1.0055  1.7677
 2880SOL     OW10080   7.482   0.473   8.570 -0.2439  0.6181 -0.0579
 2880SOL    HW110081   7.484   0.496   8.663 -1.0492  1.5545 -0.2545
 2880SOL    HW210082   7.534   0.393   8.564 -0.1146  0.5887  1.1838
 2881SOL     OW10083   5.901   5.666   1.764 -0.0383 -0.7067 -0.1543
 2881SOL    HW110084   5.921   5.622   1.681  1.3318  0.4590 -0.4889
 2881SOL    HW210085   5.935   5.754   1.753  2.5850 -1.2173  2.5112
 2882SOL     OW10086   7.331   3.161   1.262  0.2441 -0.1390 -0.1198
 2882SOL    HW110087   7.280   3.239   1.245  0.2390  0.0731  0.7895
 2882SOL    HW210088   7.286   3.119   1.336 -0.0071 -1.2354 -0.8745
 2883SOL     OW10089   5.901   0.677   7.073 -0.2111  0.3867  0.0614
 2883SOL    HW110090   5.961   0.719   7.011 -0.2670  2.7340  1.4738
 2883SOL    HW210091   5.955   0.618   7.124  0.5736  1.1753  0.1642
 2884SOL     OW10092   5.644   1.783  11.364  0.3995  0.1465  0.4436
 2884SOL    HW110093   5.627   1.852  11.427  1.6541  0.6502  0.2622
 2884SOL    HW210094   5.604   1.815  11.282 -0.2413  0.0003  0.6896
 2885SOL     OW10095   7.027   0.799   8.250  0.2194  0.0369  0.8699
 2885SOL    HW110096   7.057   0.756   8.330  0.3949 -1.6697 -0.0824
 2885SOL    HW210097   7.107   0.835   8.211  0.3112 -0.1671  0.8665
 2886SOL     OW10098   0.704   6.206   6.327  0.1815 -0.2512  0.4763
 2886SOL    HW110099   0.681   6.189   6.418  0.0821  1.5449  0.8210
 2886SOL    HW210100   0.799   6.208   6.326  0.2000 -1.0142  0.3834
 2887SOL     OW10101   1.214   7.841  12.314  0.0201 -0.8495 -0.0233
 2887SOL    HW110102   1.120   7.827  12.304 -0.1679 -0.4236  1.0250
 2887SOL    HW210103   1.224   7.936  12.320  0.5159 -0.8941 -0.0744
 2888SOL     OW10104   2.230   5.971  11.766  0.3756  0.4052 -0.0477
 2888SOL    HW110105   2.253   5.893  11.816 -1.5086  0.5748  1.2243
 2888SOL    HW210106   2.313   6.017  11.751  1.6006 -2.0493 -1.3098
 2889SOL     OW10107   6.425   6.325   9.591 -0.3361  0.4837 -0.6295
 2889SOL    HW110108   6.491   6.358   9.530 -0.4675 -1.8983 -2.1873
 2889SOL    HW210109   6.356   6.391   9.591 -0.5191  0.3875 -3.4296
 2890SOL     OW10110   0.710   7.106   5.401  0.2168 -0.3702 -0.7187
 2890SOL    HW110111   0.617   7.131   5.398  0.3768  0.2031 -1.1515
 2890SOL    HW210112   0.755   7.184   5.433  0.4089 -1.1168  0.9718
 2891SOL     OW10113   6.687   4.103   4.628 -0.3185 -0.2631 -0.0928
 2891SOL    HW110114   6.745   4.158   4.575 -0.1557  0.6370  0.9834
 2891SOL    HW210115   6.734   4.020   4.636  0.0088 -0.1461 -0.7115
 2892SOL     OW10116   7.307   1.381   8.697 -0.6268  0.2982  0.6216
 2892SOL    HW110117   7.377   1.376   8.762 -0.3080 -0.3985  0.2442
 2892SOL    HW210118   7.346   1.343   8.618 -0.2385  3.0921 -0.6834
 2893SOL     OW10119   3.080   3.811  12.163  0.2034  0.6571  0.2126
 2893SOL    HW110120   3.144   3.874  12.129  1.3414 -0.9537 -0.7135
 2893SOL    HW210121   3.055   3.759  12.087 -0.7012 -0.0477  0.9753
 2894SOL     OW10122   5.267   3.954   3.430 -0.1461 -0.1194  0.1420
 2894SOL    HW110123   5.307   4.039   3.409  0.4694 -0.6947 -1.0824
 2894SOL    HW210124   5.183   3.954   3.384  0.1048 -0.3874 -0.3263
 2895SOL     OW10125   3.918   3.859  10.445 -0.4421 -0.0860 -0.2230
 2895SOL    HW110126   3.860   3.922  10.488 -1.0555  0.4364 -1.7253
 2895SOL    HW210127   3.955   3.908  10.371  1.9735 -0.4027  0.7007
 2896SOL     OW10128   6.172   5.553   6.484 -0.4418 -0.2663  0.5253
 2896SOL    HW110129   6.232   5.509   6.544  0.0605 -1.0621 -0.5334
 2896SOL    HW210130   6.155   5.489   6.414  0.1663  1.1232 -0.9611
 2897SOL     OW10131   2.610   1.704  10.787 -0.4476 -0.2946 -0.4222
 2897SOL    HW110132   2.547   1.647  10.744 -1.0057 -0.9392  1.1900
 2897SOL    HW210133   2.632   1.660  10.869  1.9725  0.0064 -0.8097
 2898SOL     OW10134   1.289   3.199   1.454  0.0420 -0.1390 -0.0917
 2898SOL    HW110135   1.375   3.240   1.452 -0.0757  0.0865 -1.0635
 2898SOL    HW210136   1.237   3.250   1.393 -0.0330 -1.8505 -1.5391
 2899SOL     OW10137   3.766   6.547   5.444 -0.0454  0.5425  0.0998
 2899SOL    HW110138   3.824   6.487   5.491 -0.9371 -0.8654 -0.5231
 2899SOL    HW210139   3.685   6.498   5.434 -0.9418  2.0142 -0.1183
 2900SOL     OW10140   7.962   0.095   0.083 -0.3910  0.3327  0.0263
 2900SOL    HW110141   8.019   0.029   0.045  1.2339  1.9751 -0.5468
 2900SOL    HW210142   7.937   0.151   0.009  0.5076  1.9232  0.8701
 2901SOL     OW10143   6.768   7.622   7.292 -0.1663  0.2323  0.5912
 2901SOL    HW110144   6.729   7.695   7.339 -0.9924  1.4731 -1.8361
 2901SOL    HW210145   6.844   7.660   7.248 -0.2408 -0.4926 -0.1956
 2902SOL     OW10146   7.363   3.635   4.933 -0.4136 -0.4672 -0.3419
 2902SOL    HW110147   7.367   3.627   4.838 -0.9152  0.6045 -0.4752
 2902SOL    HW210148   7.423   3.568   4.966  1.7060  0.7597 -1.4914
 2903SOL     OW10149   4.259   1.797   7.662  0.6863 -0.5310 -0.1696
 2903SOL    HW110150   4.193   1.785   7.594  0.9302 -1.9865 -0.1853
 2903SOL    HW210151   4.271   1.709   7.700 -0.1094  0.3676  2.3827
 2904SOL     OW10152   0.877   7.550   1.435  0.1221  0.3129 -0.4836
 2904SOL    HW110153   0.914   7.637   1.443  0.6924 -0.0022  0.3789
 2904SOL    HW210154   0.951   7.495   1.409 -0.2183  0.0707 -0.9510
 2905SOL     OW10155   0.631   7.803   7.439  0.4268  0.0265  0.0592
 2905SOL    HW110156   0.612   7.723   7.488 -0.3558  0.2921  0.2046
 2905SOL    HW210157   0.689   7.775   7.368 -0.1414 -0.7381 -0.1126
 2906SOL     OW10158   1.421   5.369   8.854  0.2266  0.2110 -0.4529
 2906SOL    HW110159   1.483   5.388   8.925 -0.8288 -0.7177  0.7633
 2906SOL    HW210160   1.460   5.294   8.809  1.1723  1.1363 -1.2491
 2907SOL     OW10161   1.981   7.547   2.041  0.2722 -0.1263 -0.0325
 2907SOL    HW110162   1.912   7.603   2.077  0.5783  0.6035 -0.5636
 2907SOL    HW210163   1.944   7.458   2.046 -1.4181  0.4022 -1.8426
 2908SOL     OW10164   5.738   0.085   6.686  0.0399  0.2228  0.2950
 2908SOL    HW110165   5.671   0.120   6.745 -1.1534 -1.9514  0.3167
 2908SOL    HW210166   5.791   0.027   6.741  2.3952  2.2866  0.4100
 2909SOL     OW10167   7.715   3.492   7.580  0.2795 -0.6568  0.2054
 2909SOL    HW110168   7.770   3.472   7.656  1.1940 -1.7020 -0.7032
 2909SOL    HW210169   7.625   3.475   7.610  0.6440 -1.2123  1.0124
 2910SOL     OW10170   0.615   7.245   4.113  0.2435  0.3072 -0.0554
 2910SOL    HW110171   0.578   7.326   4.148  1.0617  0.3539  0.7287
 2910SOL    HW210172   0.627   7.189   4.190  1.1700  0.0406 -0.3863
 2911SOL     OW10173   0.414   2.542  10.485  0.1688 -0.3658  0.1689
 2911SOL    HW110174   0.489   2.521  10.541 -0.0733  1.2235  1.1788
 2911SOL    HW210175   0.338   2.509  10.533 -0.1070  1.6274  1.2253
 2912SOL     OW10176   4.259   0.992   7.568 -0.5492  0.0960 -0.3943
 2912SOL    HW110177   4.189   1.049   7.535 -2.0849 -0.6460  1.3893
 2912SOL    HW210178   4.225   0.903   7.556 -0.1270 -0.2632  0.9027
 2913SOL     OW10179   5.702   6.363   7.622  0.3306 -0.2939 -0.2727
 2913SOL    HW110180   5.634   6.335   7.560  1.0990 -0.1341 -1.2035
 2913SOL    HW210181   5.664   6.438   7.667  0.2482  0.4335 -1.5017
 2914SOL     OW10182   2.312   0.729   8.762  0.1045  0.2462 -0.3203
 2914SOL    HW110183   2.268   0.794   8.818  0.0165 -0.7641  0.8133
 2914SOL    HW210184   2.365   0.782   8.703  1.7355  1.3491  1.9766
 2915SOL     OW10185   2.482   6.474  10.283 -0.5556 -0.2984  0.0743
 2915SOL    HW110186   2.471   6.554  10.230 -0.1489 -1.0387 -1.1719
 2915SOL    HW210187   2.576   6.456  10.278 -0.7173 -1.1282 -0.0742
 2916SOL     OW10188   6.831   3.951   0.296 -0.0523 -0.1295 -0.1514
 2916SOL    HW110189   6.801   3.883   0.356  0.3447  0.8036  1.1706
 2916SOL    HW210190   6.760   4.016   0.297  0.2641  0.2196 -0.1301
 2917SOL     OW10191   2.456   4.549   5.559  0.4489  0.1296 -0.0146
 2917SOL    HW110192   2.379   4.535   5.615  0.2489 -0.1119 -0.3452
 2917SOL    HW210193   2.429   4.515   5.474  0.3151  1.6035 -0.5791
 2918SOL     OW10194   5.815   1.220   6.409  0.7638  0.0790  0.7175
 2918SOL    HW110195   5.792   1.130   6.389  1.0809 -0.0834  1.0641
 2918SOL    HW210196   5.908   1.227   6.389  0.6968  0.3856  0.4986
 2919SOL     OW10197   0.768   4.222  11.456  0.1874 -0.3148  0.2049
 2919SOL    HW110198   0.678   4.196  11.473  0.0964 -0.7064 -0.8048
 2919SOL    HW210199   0.801   4.250  11.541 -1.8016  2.7399  0.1107
 2920SOL     OW10200   2.939   6.860   0.056 -0.3842 -0.0910  0.1819
 2920SOL    HW110201   2.948   6.872  -0.038 -0.0244 -0.2613  0.1927
 2920SOL    HW210202   3.023   6.825   0.084 -0.5452 -0.1983  0.5417
 2921SOL     OW10203   1.312   5.266   1.492 -0.5948  0.1662 -0.0238
 2921SOL    HW110204   1.326   5.302   1.580  1.3362  0.0386 -0.2441
 2921SOL    HW210205   1.301   5.342   1.436 -0.2848  0.2993  0.0951
 2922SOL     OW10206   7.341   3.693   8.096  0.3319 -0.2517  0.1898
 2922SOL    HW110207   7.376   3.753   8.031  0.2124  1.5506  1.6935
 2922SOL    HW210208   7.287   3.748   8.153 -0.3765 -1.9283  1.2145
 2923SOL     OW10209   3.521   0.628   7.132  0.0664 -0.5278  0.1889
 2923SOL    HW110210   3.513   0.539   7.098 -0.3053  0.1684 -1.6752
 2923SOL    HW210211   3.490   0.622   7.223 -0.4079 -2.2038 -0.0541
 2924SOL     OW10212   3.124   5.290  12.345 -0.1312  0.5636 -0.0989
 2924SOL    HW110213   3.205   5.253  12.311 -0.2874  1.0555 -1.0563
 2924SOL    HW210214   3.060   5.219  12.338 -0.0508  0.5217 -0.4323
 2925SOL     OW10215   0.428   1.420   7.207 -0.1670 -0.0579 -0.3673
 2925SOL    HW110216   0.490   1.436   7.136  1.8804 -1.4976  0.9595
 2925SOL    HW210217   0.483   1.392   7.280 -2.4164 -1.7247  0.8175
 2926SOL     OW10218   0.873   3.695  10.549  0.0765 -1.0097  0.2180
 2926SOL    HW110219   0.933   3.622  10.563  2.1839  0.6351  0.2540
 2926SOL    HW210220   0.864   3.702  10.454  2.3138  0.4847  0.0607
 2927SOL     OW10221   6.947   6.102   1.897  0.2869 -0.1543 -0.2646
 2927SOL    HW110222   6.951   6.032   1.963 -1.4150 -0.3987 -0.3760
 2927SOL    HW210223   7.012   6.077   1.832  1.7441 -0.0998  1.1299
 2928SOL     OW10224   2.495   5.445   6.232 -0.2186  0.8418 -0.2486
 2928SOL    HW110225   2.490   5.366   6.178 -0.8049 -0.6289  1.8411
 2928SOL    HW210226   2.589   5.463   6.239  0.2185 -1.6868  1.8958
 2929SOL     OW10227   6.419   7.573   9.195  0.5478 -0.5798  0.2360
 2929SOL    HW110228   6.443   7.506   9.259 -0.7407  0.6283  2.0876
 2929SOL    HW210229   6.352   7.532   9.141 -0.2901 -0.7964  1.4017
 2930SOL     OW10230   6.603   5.990   0.934 -0.5366  0.4854 -0.4093
 2930SOL    HW110231   6.686   6.024   0.968  0.3418 -2.1739  0.3819
 2930SOL    HW210232   6.610   6.000   0.839  1.5753 -1.3122 -0.5319
 2931SOL     OW10233   4.386   4.017   8.042 -0.1422  0.3138  0.0090
 2931SOL    HW110234   4.449   4.030   8.113 -1.0025  0.3855  0.7812
 2931SOL    HW210235   4.418   3.940   7.996  0.8472  0.7112  0.0122
 2932SOL     OW10236   3.310   5.316   1.339 -0.1333  0.3156 -0.4775
 2932SOL    HW110237   3.219   5.299   1.318  0.0036 -2.1286  0.5716
 2932SOL    HW210238   3.307   5.375   1.415 -0.8183  0.4507 -0.6097
 2933SOL     OW10239   0.274   5.540  10.430 -0.4226 -0.3554  0.3279
 2933SOL    HW110240   0.248   5.496  10.511  0.8628 -1.1641  0.3280
 2933SOL    HW210241   0.210   5.610  10.419  1.1537  1.9045  3.7610
 2934SOL     OW10242   1.855   3.240  11.260 -0.2528 -0.1730 -0.0072
 2934SOL    HW110243   1.773   3.284  11.283  0.2415  1.1404 -0.6082
 2934SOL    HW210244   1.909   3.246  11.339  0.4389  1.8976 -0.5682
 2935SOL     OW10245   1.084   3.621   4.893 -0.1539 -0.0917  0.7557
 2935SOL    HW110246   1.071   3.565   4.817 -0.3682 -0.6474  1.1959
 2935SOL    HW210247   1.008   3.680   4.892 -0.7941 -0.8746  1.1935
 2936SOL     OW10248   1.913   4.771   3.827 -0.0749 -0.5517 -0.0962
 2936SOL    HW110249   1.932   4.836   3.894 -1.5409 -0.3676  0.1698
 2936SOL    HW210250   1.861   4.704   3.872  0.8773 -1.5991 -0.5173
 2937SOL     OW10251   2.594   6.847   1.194 -0.0339 -0.2584 -0.7777
 2937SOL    HW110252   2.659   6.916   1.209 -0.8866  0.8161 -1.7683
 2937SOL    HW210253   2.633   6.791   1.127  1.2666 -1.6287  1.0250
 2938SOL     OW10254   0.832   4.980   4.865  0.7302 -0.1527 -0.2986
 2938SOL    HW110255   0.876   4.901   4.895  0.9327 -0.1392 -0.5631
 2938SOL    HW210256   0.842   4.980   4.770 -0.8759 -0.7803 -0.5047
 2939SOL     OW10257   6.284   3.660   8.145 -0.4396 -0.1221  0.3074
 2939SOL    HW110258   6.194   3.685   8.122 -1.0075 -2.0965  0.2059
 2939SOL    HW210259   6.288   3.566   8.126  1.4215 -0.2306  1.0647
 2940SOL     OW10260   7.123   3.835   8.482  0.2545  0.3614  0.1554
 2940SOL    HW110261   7.143   3.826   8.575  1.1434 -0.8905 -0.1411
 2940SOL    HW210262   7.034   3.802   8.474  0.4910 -0.3548  0.4265
 2941SOL     OW10263   3.731   2.122   9.583  1.0339  0.1874 -0.7019
 2941SOL    HW110264   3.658   2.182   9.568 -0.6401 -0.8531  2.3796
 2941SOL    HW210265   3.781   2.162   9.654  1.0104 -1.0981  0.0712
 2942SOL     OW10266   5.126   4.974   8.716  0.4516 -0.1733  0.1922
 2942SOL    HW110267   5.093   5.053   8.673  0.3742  0.4574  1.3733
 2942SOL    HW210268   5.049   4.917   8.724  0.0686  0.4629  1.1290
 2943SOL     OW10269   6.520   4.484   4.524  0.1759 -0.4971  0.2054
 2943SOL    HW110270   6.615   4.492   4.512  0.2222 -1.0760  0.1364
 2943SOL    HW210271   6.510   4.413   4.587 -0.2438 -1.5002 -0.9425
 2944SOL     OW10272   2.030   4.382   3.833 -0.0473  0.1158 -0.1066
 2944SOL    HW110273   2.015   4.295   3.797  2.7451 -0.2648 -0.5767
 2944SOL    HW210274   2.045   4.367   3.926 -0.3093  0.1992 -0.0502
 2945SOL     OW10275   2.756   0.715   4.511  1.2955  0.0878  0.1586
 2945SOL    HW110276   2.734   0.734   4.420 -1.5727 -1.0055  0.4960
 2945SOL    HW210277   2.823   0.780   4.534  1.5881  0.8388 -2.4938
 2946SOL     OW10278   1.729   6.721   0.894  0.1878  0.3134  0.3331
 2946SOL    HW110279   1.639   6.688   0.890 -0.1329  1.0864  0.9830
 2946SOL    HW210280   1.736   6.780   0.819 -0.1869  1.0669  0.8827
 2947SOL     OW10281   6.664   7.826   8.990 -0.4963 -0.4590 -0.1995
 2947SOL    HW110282   6.601   7.829   9.062  0.0322  2.5727  0.2423
 2947SOL    HW210283   6.749   7.842   9.030  0.0699 -0.5945 -1.2887
 2948SOL     OW10284   7.160   6.964  11.677 -0.2500  0.0636 -0.4292
 2948SOL    HW110285   7.076   6.924  11.653 -0.7109  0.1702  0.9377
 2948SOL    HW210286   7.223   6.892  11.671 -0.5815 -0.2162 -0.6256
 2949SOL     OW10287   1.946   3.196   5.968  0.4038  0.3599  0.0205
 2949SOL    HW110288   1.957   3.115   5.917  0.4169  0.5501 -0.2827
 2949SOL    HW210289   1.857   3.225   5.948  0.5900  0.7127 -0.3029
 2950SOL     OW10290   2.220   5.611  10.568 -0.5878 -0.0668 -0.0700
 2950SOL    HW110291   2.298   5.557  10.558 -0.8856 -0.3145 -1.2771
 2950SOL    HW210292   2.188   5.593  10.656  1.7643  1.4853  1.2219
 2951SOL     OW10293   4.983   3.420  10.904 -0.3752  0.4816  0.2119
 2951SOL    HW110294   4.995   3.369  10.984  2.7015  1.1269  0.2729
 2951SOL    HW210295   4.945   3.503  10.934 -0.3018  0.2973  0.8357
 2952SOL     OW10296   0.694   4.670  10.641 -0.0509 -0.1746 -0.2996
 2952SOL    HW110297   0.649   4.624  10.712  0.8415 -0.1691  0.2910
 2952SOL    HW210298   0.762   4.722  10.685  1.5503 -1.3759 -1.2298
 2953SOL     OW10299   0.687   4.716   4.451  0.2178  0.6636 -0.1949
 2953SOL    HW110300   0.766   4.668   4.474  0.1365  0.1803 -0.8937
 2953SOL    HW210301   0.676   4.700   4.357 -0.5159  1.0084 -0.1717
 2954SOL     OW10302   7.109   0.274   4.477 -0.1448 -0.4258  0.3349
 2954SOL    HW110303   7.094   0.292   4.570  0.7260  0.3853  0.3305
 2954SOL    HW210304   7.198   0.239   4.474  0.2992  0.7053 -0.3218
 2955SOL     OW10305   2.062   4.874   3.283 -0.4975 -0.7734  0.5829
 2955SOL    HW110306   2.015   4.801   3.242 -2.2697  1.4077 -1.5780
 2955SOL    HW210307   2.031   4.875   3.374 -4.1169 -0.0304 -0.5080
 2956SOL     OW10308   1.683   7.114   6.192 -0.0010  0.0186 -0.3651
 2956SOL    HW110309   1.623   7.077   6.127  0.4564 -0.9604 -0.2370
 2956SOL    HW210310   1.651   7.204   6.205 -1.3130 -0.4120 -0.4453
 2957SOL     OW10311   0.129   3.411   0.593  0.1855 -0.3929 -0.0425
 2957SOL    HW110312   0.173   3.360   0.525  0.6994  0.5986 -0.4718
 2957SOL    HW210313   0.046   3.438   0.553  0.5916  0.3921 -0.3894
 2958SOL     OW10314   2.320   1.657   5.827  0.2893 -0.4969 -0.0302
 2958SOL    HW110315   2.410   1.658   5.796  1.4486  1.6297  2.9516
 2958SOL    HW210316   2.270   1.698   5.755  2.4957  2.4821 -0.0729
 2959SOL     OW10317   3.962   1.584  10.295 -0.4868  0.2041  0.1819
 2959SOL    HW110318   4.009   1.528  10.357  1.0273  1.7251  0.4872
 2959SOL    HW210319   3.927   1.655  10.348 -1.3949  0.1727 -0.3584
 2960SOL     OW10320   7.461   1.703   5.708 -0.4749 -0.1245 -0.3271
 2960SOL    HW110321   7.380   1.652   5.715 -0.3876 -0.2585 -0.2858
 2960SOL    HW210322   7.526   1.640   5.676 -0.2270 -0.1870  0.2964
 2961SOL     OW10323   1.781   2.434  11.711  0.1116 -0.2303 -0.1416
 2961SOL    HW110324   1.809   2.510  11.659 -0.2835  0.2113  0.2740
 2961SOL    HW210325   1.748   2.472  11.793 -2.7179 -0.5767 -0.9984
 2962SOL     OW10326   4.372   5.826  11.400 -0.2414 -0.3452 -0.0723
 2962SOL    HW110327   4.429   5.791  11.332  0.2863  1.0076 -0.3662
 2962SOL    HW210328   4.293   5.773  11.396  0.4930 -1.4299 -0.5279
 2963SOL     OW10329   1.592   6.895   2.615 -0.3408 -0.1236 -0.3548
 2963SOL    HW110330   1.666   6.838   2.595 -0.5316 -0.3199 -0.4994
 2963SOL    HW210331   1.633   6.979   2.639 -0.0615 -0.3340 -0.0843
 2964SOL     OW10332   0.039   2.940   5.402 -0.4104  0.2934  0.0646
 2964SOL    HW110333   0.133   2.924   5.401 -0.3866  0.3113  1.1176
 2964SOL    HW210334   0.019   2.964   5.492 -1.6126 -0.8220  0.1281
 2965SOL     OW10335   4.385   7.585   8.837 -0.2809 -0.1513  0.8197
 2965SOL    HW110336   4.430   7.644   8.776 -0.4409 -2.0571 -1.3224
 2965SOL    HW210337   4.454   7.528   8.870 -0.6826 -1.5745 -0.6492
 2966SOL     OW10338   2.113   5.849   3.294  0.3122 -0.3760  0.3279
 2966SOL    HW110339   2.076   5.935   3.273  2.3407  0.9547  1.7418
 2966SOL    HW210340   2.053   5.813   3.360  0.4397  0.8766  1.1792
 2967SOL     OW10341   6.436   1.977  11.821  0.2958 -0.8381  0.0254
 2967SOL    HW110342   6.456   1.953  11.911  3.2836 -1.5549 -0.7171
 2967SOL    HW210343   6.413   2.070  11.825 -0.5193 -1.0943  1.6190
 2968SOL     OW10344   7.481   6.543  10.027 -0.1889  0.4514  0.4304
 2968SOL    HW110345   7.565   6.497  10.019 -0.1244  0.4258  1.2192
 2968SOL    HW210346   7.503   6.623  10.075 -0.0629  1.9615 -1.9482
 2969SOL     OW10347   5.387   3.603  10.571 -0.0610  0.1760  0.1149
 2969SOL    HW110348   5.387   3.631  10.663  0.8655 -1.8339  0.7798
 2969SOL    HW210349   5.456   3.537  10.567 -0.0063  0.3185 -2.0770
 2970SOL     OW10350   1.468   5.207   3.440  0.0723 -0.6130 -0.0986
 2970SOL    HW110351   1.446   5.146   3.510 -0.3394 -0.6904 -0.2906
 2970SOL    HW210352   1.439   5.292   3.472 -3.1313 -1.0685 -1.4350
 2971SOL     OW10353   7.821   1.478   1.223 -0.2552 -0.3289  0.6186
 2971SOL    HW110354   7.892   1.537   1.196 -0.7421 -0.8842 -2.1868
 2971SOL    HW210355   7.758   1.535   1.267  0.4732  0.7448  0.3136
 2972SOL     OW10356   5.826   4.595   8.369  0.3155  0.2931  0.2320
 2972SOL    HW110357   5.821   4.621   8.461  0.0892 -0.4014  0.4203
 2972SOL    HW210358   5.817   4.500   8.371  0.4477  0.2643 -0.5006
 2973SOL     OW10359   5.181   1.300   8.469  0.2156  0.8939 -0.0456
 2973SOL    HW110360   5.121   1.350   8.525  0.1261  1.0487 -0.2774
 2973SOL    HW210361   5.185   1.350   8.388  0.3029  0.6407 -0.1989
 2974SOL     OW10362   5.182   2.268   8.785 -0.1192  0.1739 -0.4514
 2974SOL    HW110363   5.103   2.272   8.731  0.4083 -0.4108 -1.2761
 2974SOL    HW210364   5.173   2.186   8.835  0.3714 -0.3468 -1.1987
 2975SOL     OW10365   1.610   7.203  11.042 -0.0196  0.0595  0.7599
 2975SOL    HW110366   1.589   7.241  10.956 -0.2612  1.4925  1.4089
 2975SOL    HW210367   1.695   7.241  11.065  0.6661 -1.3284  0.6115
 2976SOL     OW10368   3.846   0.943   8.213 -0.5281  0.1840  0.1478
 2976SOL    HW110369   3.811   0.963   8.300  0.0268  1.4354  0.1104
 2976SOL    HW210370   3.773   0.901   8.167 -0.9295 -0.1919  1.1058
 2977SOL     OW10371   3.171   7.645   9.315  0.3750 -0.4228 -0.0579
 2977SOL    HW110372   3.177   7.718   9.253  0.1478 -1.9535 -1.9799
 2977SOL    HW210373   3.099   7.668   9.373  0.4124  0.9363 -0.5240
 2978SOL     OW10374   6.628   2.416   5.389  0.5211  0.4447  0.2483
 2978SOL    HW110375   6.596   2.386   5.303 -1.3068 -0.7992  1.2804
 2978SOL    HW210376   6.675   2.340   5.424 -1.2145 -0.1322  1.4788
 2979SOL     OW10377   5.229   1.376   1.124  0.4693 -0.2180 -0.1087
 2979SOL    HW110378   5.160   1.315   1.099 -2.7426  2.7012  0.8229
 2979SOL    HW210379   5.260   1.343   1.208 -1.1821 -0.6227  0.3856
 2980SOL     OW10380   2.035   0.912   8.320  0.0627 -0.3454 -0.2185
 2980SOL    HW110381   2.092   0.939   8.392  0.7073 -2.1402  0.0043
 2980SOL    HW210382   1.979   0.987   8.304  0.2871  0.3089  1.7964
 2981SOL     OW10383   4.662   3.979  10.712 -0.2257 -0.1809 -0.3534
 2981SOL    HW110384   4.607   4.044  10.670  2.0675  2.2689  0.1774
 2981SOL    HW210385   4.663   4.002  10.804  0.0618 -1.4327 -0.0181
 2982SOL     OW10386   2.983   2.900   6.883  0.3968 -0.5014 -0.0811
 2982SOL    HW110387   2.988   2.951   6.964  1.3784 -0.8545  0.0934
 2982SOL    HW210388   2.994   2.809   6.910 -1.9577 -0.9334 -0.3249
 2983SOL     OW10389   2.696   4.490   3.557  0.1149  0.3577 -0.5529
 2983SOL    HW110390   2.611   4.512   3.595 -0.3747 -0.4204 -1.1731
 2983SOL    HW210391   2.759   4.538   3.610 -0.7094  0.9204 -0.0664
 2984SOL     OW10392   4.969   7.913   7.459 -0.4623  0.1643 -0.4771
 2984SOL    HW110393   4.917   7.988   7.488 -1.9275  0.1252 -2.7667
 2984SOL    HW210394   5.032   7.950   7.398  0.0822 -0.2333 -0.1664
 2985SOL     OW10395   3.990   4.502  10.656 -0.1177 -0.0887  0.2872
 2985SOL    HW110396   4.008   4.455  10.575  2.4314  1.2482 -0.0240
 2985SOL    HW210397   4.075   4.512  10.698 -0.6733  2.9823  0.9776
 2986SOL     OW10398   0.306   4.291  10.666  0.3325  0.4085 -0.1865
 2986SOL    HW110399   0.350   4.207  10.678 -1.9390 -1.0923 -1.5907
 2986SOL    HW210400   0.368   4.344  10.615  0.6172 -1.5737 -2.0245
 2987SOL     OW10401   5.329   4.360  11.442  0.4459  0.1267  0.0028
 2987SOL    HW110402   5.247   4.409  11.429  0.6087  1.0890  2.0869
 2987SOL    HW210403   5.309   4.271  11.413 -2.2139 -0.3082  2.6601
 2988SOL     OW10404   3.200   2.062   1.942  0.9692  0.0367  0.2033
 2988SOL    HW110405   3.251   2.127   1.991 -0.9906 -0.1809  2.6939
 2988SOL    HW210406   3.130   2.036   2.001 -0.3641 -1.8181 -2.0145
 2989SOL     OW10407   7.498   0.782   3.148 -0.7476 -0.4499  0.0534
 2989SOL    HW110408   7.558   0.823   3.086 -0.5208 -1.5152 -0.4465
 2989SOL    HW210409   7.447   0.855   3.184 -1.9063  0.0901 -2.4527
 2990SOL     OW10410   7.585   2.025   5.019 -0.0200  0.1978 -0.1474
 2990SOL    HW110411   7.678   2.009   5.008 -0.3551 -2.1275 -0.0988
 2990SOL    HW210412   7.545   1.938   5.015 -1.8608  0.7542  2.9072
 2991SOL     OW10413   4.479   0.667   6.098 -0.6382  0.0598 -0.0235
 2991SOL    HW110414   4.474   0.702   6.187 -0.0342  0.8618 -0.2887
 2991SOL    HW210415   4.442   0.736   6.043  2.1000  1.1031 -0.7499
 2992SOL     OW10416   3.802   6.027   4.876 -0.4498  0.2421 -0.6162
 2992SOL    HW110417   3.878   6.082   4.856 -0.5155  0.4367 -0.3413
 2992SOL    HW210418   3.793   6.032   4.971  0.3851 -1.3737 -0.4126
 2993SOL     OW10419   3.703   3.013   2.178  0.1677 -0.0229 -0.6683
 2993SOL    HW110420   3.674   3.028   2.088 -0.7244 -0.5971 -0.4905
 2993SOL    HW210421   3.797   3.027   2.175 -0.1365  2.3603 -1.1750
 2994SOL     OW10422   0.229   3.565   4.856  0.2094 -0.3336 -0.4691
 2994SOL    HW110423   0.174   3.643   4.845  0.4523 -0.0386  0.3414
 2994SOL    HW210424   0.230   3.549   4.950  0.5884 -1.0113 -0.5812
 2995SOL     OW10425   3.931   4.498   2.380  0.2304 -0.0438 -0.4190
 2995SOL    HW110426   3.921   4.535   2.292 -1.7183  0.8540  0.1253
 2995SOL    HW210427   3.845   4.463   2.402  0.5886  0.0122  1.2311
 2996SOL     OW10428   7.710   5.232   1.022 -0.5323 -0.2647  0.3352
 2996SOL    HW110429   7.720   5.310   0.967  1.5341 -0.9090 -0.3111
 2996SOL    HW210430   7.766   5.250   1.098  0.7994 -1.4909 -0.3136
 2997SOL     OW10431   7.627   7.411   2.213  0.0730 -0.3800  0.0828
 2997SOL    HW110432   7.647   7.496   2.251 -3.0546 -0.5060  2.3324
 2997SOL    HW210433   7.606   7.429   2.122 -0.0040  1.1759  0.3897
 2998SOL     OW10434   2.726   0.341   6.381 -0.0353  0.3164 -0.1219
 2998SOL    HW110435   2.806   0.289   6.393 -1.1740 -1.5093  0.0387
 2998SOL    HW210436   2.658   0.276   6.366 -1.2615  1.8910 -1.7897
 2999SOL     OW10437   1.487   6.582   2.044 -0.1118 -0.4012  0.3989
 2999SOL    HW110438   1.490   6.633   2.125  0.4216 -0.3494  0.3498
 2999SOL    HW210439   1.397   6.589   2.014 -0.4103 -0.7314  1.1907
 3000SOL     OW10440   4.546   7.157   2.068  0.2812  0.3925  0.0043
 3000SOL    HW110441   4.546   7.252   2.063  0.2320  0.3473 -1.0156
 3000SOL    HW210442   4.603   7.129   1.997 -1.2138 -0.3864 -0.9228
 3001SOL     OW10443   0.416   0.431   7.759  0.0625 -0.2873 -0.6185
 3001SOL    HW110444   0.394   0.419   7.666  0.1104 -0.9013 -0.5510
 3001SOL    HW210445   0.333   0.457   7.800 -0.2021 -1.0852 -0.6395
 3002SOL     OW10446   0.862   0.853   1.189 -0.2905  0.1387 -0.5821
 3002SOL    HW110447   0.924   0.920   1.218 -0.5895  0.5550 -0.8850
 3002SOL    HW210448   0.845   0.874   1.098 -0.3063 -0.4231 -0.7117
 3003SOL     OW10449   6.147   7.546   6.443  0.1107 -0.0131  0.2096
 3003SOL    HW110450   6.118   7.619   6.497 -1.1250  0.3134 -0.8633
 3003SOL    HW210451   6.067   7.504   6.413  0.7398 -0.1234 -1.4484
 3004SOL     OW10452   2.563   1.204   4.358 -0.3169  0.4617 -0.0625
 3004SOL    HW110453   2.577   1.287   4.405 -1.1426  0.3222  0.4464
 3004SOL    HW210454   2.590   1.137   4.420  1.4315  0.3582 -0.8755
 3005SOL     OW10455   1.641   2.169  10.925 -0.9586 -0.0589 -0.2360
 3005SOL    HW110456   1.589   2.109  10.979 -1.2394  1.4180  1.2323
 3005SOL    HW210457   1.578   2.234  10.893 -0.5734 -0.1945 -1.3245
 3006SOL     OW10458   6.989   6.473  10.233 -0.0242 -0.1066  0.1979
 3006SOL    HW110459   6.919   6.435  10.179  0.3883  0.1237 -0.5184
 3006SOL    HW210460   7.059   6.494  10.170  0.1252  0.9747  0.6980
 3007SOL     OW10461   5.372   3.890  10.328 -0.7711  0.6575 -0.4027
 3007SOL    HW110462   5.311   3.820  10.347  0.7535 -0.3804  0.9528
 3007SOL    HW210463   5.397   3.876  10.237  0.2586 -1.2283  0.1150
 3008SOL     OW10464   2.650   0.729   9.765  0.1223 -0.0945 -0.0173
 3008SOL    HW110465   2.583   0.783   9.724  0.1553  1.3027  1.6830
 3008SOL    HW210466   2.733   0.768   9.737  0.4824 -2.7003 -3.3649
 3009SOL     OW10467   5.273   7.912  12.398  0.4902 -0.9608  0.0494
 3009SOL    HW110468   5.180   7.933  12.384  0.7752  0.9049  0.6937
 3009SOL    HW210469   5.291   7.841  12.336 -0.5320  0.9264 -2.5679
 3010SOL     OW10470   5.197   7.940   9.101 -0.0043 -0.6563 -0.6986
 3010SOL    HW110471   5.193   7.932   9.197  1.4131 -0.7792 -0.6285
 3010SOL    HW210472   5.115   7.902   9.070 -1.5732  1.4606  0.5679
 3011SOL     OW10473   7.207   7.677   4.632 -0.3948  0.7163  0.4839
 3011SOL    HW110474   7.287   7.723   4.657 -0.7929  1.2685  0.7590
 3011SOL    HW210475   7.172   7.728   4.560  0.4727 -0.5776 -0.9056
 3012SOL     OW10476   7.790   2.198   6.533  0.4565  0.3610  0.6343
 3012SOL    HW110477   7.800   2.292   6.549 -0.1982  0.2906  1.5210
 3012SOL    HW210478   7.878   2.162   6.547  0.4647  0.6847  1.4384
 3013SOL     OW10479   2.803   5.583  10.157 -0.0838  0.2263 -0.6202
 3013SOL    HW110480   2.753   5.527  10.097  0.7794  0.3463 -1.4722
 3013SOL    HW210481   2.739   5.646  10.190 -0.7088 -0.2265 -0.9379
 3014SOL     OW10482   7.703   1.423   3.565 -0.3458 -0.4107 -0.0889
 3014SOL    HW110483   7.765   1.479   3.613  1.2477 -1.5395 -0.7577
 3014SOL    HW210484   7.617   1.457   3.590  0.5046  0.9171  1.2443
 3015SOL     OW10485   6.026   5.629   5.394  0.1747  0.1171 -0.2637
 3015SOL    HW110486   5.975   5.563   5.440 -1.4394  0.7684 -1.0293
 3015SOL    HW210487   5.981   5.712   5.413  1.4678  0.8388 -0.2669
 3016SOL     OW10488   2.045   1.853   5.374  0.0065  0.1527  0.0805
 3016SOL    HW110489   2.120   1.912   5.380  0.6599 -0.7507  1.1332
 3016SOL    HW210490   2.014   1.863   5.284  1.9361 -0.0852 -0.6564
 3017SOL     OW10491   1.546   1.343   0.409 -0.8960  0.0995  0.1674
 3017SOL    HW110492   1.465   1.346   0.460  0.4884 -0.8363  2.5537
 3017SOL    HW210493   1.601   1.412   0.447 -0.1730  0.0690 -0.7685
 3018SOL     OW10494   6.741   4.344   5.942 -0.0448 -0.2406 -0.0133
 3018SOL    HW110495   6.653   4.362   5.975  0.9402  1.0140  2.2233
 3018SOL    HW210496   6.785   4.429   5.943  0.9081 -0.6404 -2.1645
 3019SOL     OW10497   6.474   0.810   1.652 -0.2438  0.0615 -0.4816
 3019SOL    HW110498   6.413   0.880   1.626  0.5201  2.0078  2.4410
 3019SOL    HW210499   6.420   0.748   1.701 -0.2558  0.8148  0.4943
 3020SOL     OW10500   0.720   7.851   7.034  0.6440  0.7985  0.2189
 3020SOL    HW110501   0.782   7.801   7.088 -0.8317 -0.0151  1.2486
 3020SOL    HW210502   0.688   7.788   6.970  0.3351  1.0022  0.1715
 3021SOL     OW10503   1.754   1.580   1.506  0.4118  0.5081  0.0380
 3021SOL    HW110504   1.842   1.543   1.495 -0.2028 -0.4570 -2.0745
 3021SOL    HW210505   1.769   1.675   1.511  1.6331  0.3056  0.5725
 3022SOL     OW10506   7.059   1.212   6.621  0.0643  0.0493  0.1527
 3022SOL    HW110507   7.083   1.295   6.580  0.0628  0.1804  0.4154
 3022SOL    HW210508   6.972   1.227   6.656 -0.0960 -0.1884 -0.1366
 3023SOL     OW10509   7.106   4.036  10.059  0.4420  0.2462 -0.4519
 3023SOL    HW110510   7.012   4.054  10.053  0.6516  1.0313 -1.7900
 3023SOL    HW210511   7.116   3.946  10.028  0.3737  1.0207 -2.9779
 3024SOL     OW10512   7.371   4.190   3.480 -0.0914  0.4738 -0.2852
 3024SOL    HW110513   7.360   4.161   3.571  2.7350 -0.1046 -0.0160
 3024SOL    HW210514   7.432   4.264   3.486 -0.8392  1.2434 -1.6498
 3025SOL     OW10515   3.089   1.929   8.072 -0.0442 -0.1674 -0.4003
 3025SOL    HW110516   3.092   2.022   8.049 -0.1339  0.1811  0.9174
 3025SOL    HW210517   3.143   1.922   8.151 -2.5120 -0.6383  1.3483
 3026SOL     OW10518   4.701   2.391  11.112  0.3092 -0.1395  0.2501
 3026SOL    HW110519   4.706   2.312  11.059 -0.5177 -0.6057  0.8310
 3026SOL    HW210520   4.732   2.461  11.055  1.9637 -1.0026  0.0261
 3027SOL     OW10521   6.056   3.965   6.466 -0.4288  0.6739  0.2168
 3027SOL    HW110522   6.117   3.973   6.540 -0.8001 -0.9961  0.7492
 3027SOL    HW210523   6.113   3.960   6.389  0.1201 -0.5527  0.6791
 3028SOL     OW10524   4.818   4.741   8.202  0.1792  0.5793  0.4790
 3028SOL    HW110525   4.848   4.744   8.111 -0.0954  1.4465  0.4023
 3028SOL    HW210526   4.795   4.649   8.217 -1.7295  0.7454 -0.9912
 3029SOL     OW10527   3.477   0.742   9.614  0.9790  0.2480  0.6395
 3029SOL    HW110528   3.389   0.774   9.634  0.9008  0.4320  0.0154
 3029SOL    HW210529   3.507   0.799   9.543  1.0530 -0.7354 -0.1236
 3030SOL     OW10530   4.845   1.116   4.349  0.3432 -0.0374 -0.3061
 3030SOL    HW110531   4.764   1.080   4.315 -0.2009 -0.9662  1.8042
 3030SOL    HW210532   4.872   1.055   4.418  1.6953  1.3625  0.4948
 3031SOL     OW10533   3.683   5.988   5.726  0.3189 -0.0167  0.1069
 3031SOL    HW110534   3.686   5.925   5.654 -0.4942 -0.4522  0.4446
 3031SOL    HW210535   3.692   5.935   5.805  1.7286  0.5075  0.3324
 3032SOL     OW10536   5.277   0.186   1.161  0.1395 -0.4597 -0.3176
 3032SOL    HW110537   5.236   0.099   1.157 -0.2817 -0.2189 -1.7908
 3032SOL    HW210538   5.261   0.224   1.075  3.0849 -0.1660 -0.8620
 3033SOL     OW10539   4.286   1.424  11.862  0.3201  0.3382 -0.5789
 3033SOL    HW110540   4.297   1.341  11.815 -0.2521  0.1734 -0.4344
 3033SOL    HW210541   4.272   1.489  11.793  1.1542  0.3863 -0.7126
 3034SOL     OW10542   1.578   0.485   3.875  0.7269 -0.2893 -0.3400
 3034SOL    HW110543   1.578   0.570   3.831  0.9071 -1.3194 -2.4626
 3034SOL    HW210544   1.491   0.449   3.858 -0.6514  0.7446  3.4154
 3035SOL     OW10545   5.747   6.613   2.685 -0.0357  0.0460  0.6652
 3035SOL    HW110546   5.824   6.556   2.678  1.2675  1.8772 -1.0079
 3035SOL    HW210547   5.750   6.648   2.774 -1.1829 -2.7807  1.9425
 3036SOL     OW10548   6.674   1.953   8.881  0.2240 -0.5876 -0.0229
 3036SOL    HW110549   6.767   1.932   8.885  0.6561  1.4074  3.3771
 3036SOL    HW210550   6.645   1.953   8.972 -2.3562  1.9067 -0.7103
 3037SOL     OW10551   7.333   1.457   5.206 -0.1152  0.2291  0.0510
 3037SOL    HW110552   7.255   1.444   5.260  0.0788  0.1234  0.3105
 3037SOL    HW210553   7.404   1.466   5.270  0.1743 -0.2827 -0.1942
 3038SOL     OW10554   4.094   3.900   7.007 -0.1058  0.1379 -0.0215
 3038SOL    HW110555   4.025   3.886   7.072 -0.1492 -0.7864 -0.2590
 3038SOL    HW210556   4.094   3.995   6.993  0.1493  0.4158  1.5956
 3039SOL     OW10557   6.979   3.593   3.125  0.3235  0.0959  0.4818
 3039SOL    HW110558   6.964   3.638   3.041 -0.5904  1.7100  1.4587
 3039SOL    HW210559   6.976   3.500   3.103 -0.6791  0.4670 -1.1572
 3040SOL     OW10560   1.797   4.737   8.930  0.3614  0.3736  0.2951
 3040SOL    HW110561   1.826   4.781   8.850  0.6734 -0.9089 -0.3102
 3040SOL    HW210562   1.735   4.671   8.900  0.7362 -0.3459  1.0643
 3041SOL     OW10563   1.788   7.084  11.905 -0.1977  0.5042 -0.2360
 3041SOL    HW110564   1.710   7.138  11.893 -0.7838 -0.2384  0.1453
 3041SOL    HW210565   1.826   7.077  11.817 -0.1302  1.4938 -0.2960
 3042SOL     OW10566   4.548   3.527  10.210 -0.5574  0.2044  0.2900
 3042SOL    HW110567   4.609   3.599  10.230  2.5572 -1.7148 -1.5586
 3042SOL    HW210568   4.547   3.475  10.290 -0.0848  0.4743  0.4808
 3043SOL     OW10569   1.172   1.854  11.412 -0.3393  0.3163  0.5243
 3043SOL    HW110570   1.139   1.872  11.500 -2.1369  4.2376 -0.7020
 3043SOL    HW210571   1.100   1.880  11.354  0.8813 -1.8306 -2.1753
 3044SOL     OW10572   5.154   3.293   4.365  0.1430  0.7659  0.1219
 3044SOL    HW110573   5.067   3.254   4.355 -0.3275  1.4385  1.3932
 3044SOL    HW210574   5.204   3.258   4.292 -0.1544 -2.3649  1.2839
 3045SOL     OW10575   4.858   1.497   1.771  0.1802 -0.0858 -1.0603
 3045SOL    HW110576   4.866   1.591   1.761 -1.4289 -0.0559 -2.7197
 3045SOL    HW210577   4.811   1.485   1.853  0.6147  0.5502 -0.7218
 3046SOL     OW10578   6.249   6.475  10.367  0.4071  0.2001  0.0993
 3046SOL    HW110579   6.329   6.444  10.324 -0.1485 -0.6950 -0.3130
 3046SOL    HW210580   6.183   6.409  10.346 -0.5612  1.1524  0.0571
 3047SOL     OW10581   5.543   7.679   2.961 -0.4165  0.1730  0.0485
 3047SOL    HW110582   5.488   7.719   2.894  0.8356  1.0525 -0.4960
 3047SOL    HW210583   5.520   7.726   3.042 -2.0000 -0.9596  0.2940
 3048SOL     OW10584   7.370   4.451  10.759  0.2107 -0.1690 -0.3142
 3048SOL    HW110585   7.361   4.517  10.691 -0.1666  1.3155  1.1138
 3048SOL    HW210586   7.395   4.371  10.712  1.1408  1.0775 -2.0468
 3049SOL     OW10587   1.590   4.179   8.928 -0.3362 -0.7528 -0.2711
 3049SOL    HW110588   1.560   4.094   8.958  0.1374 -0.9831 -0.4358
 3049SOL    HW210589   1.522   4.209   8.868  0.0453 -1.5507 -1.1297
 3050SOL     OW10590   2.970   1.704   5.825 -0.1737 -0.3816 -0.1886
 3050SOL    HW110591   2.905   1.719   5.894  1.1472  1.0215  0.8047
 3050SOL    HW210592   2.936   1.754   5.750 -0.8332 -0.6508 -0.0805
 3051SOL     OW10593   6.498   4.936   2.951  0.0521 -0.0439  0.1232
 3051SOL    HW110594   6.549   5.012   2.924  0.2419 -0.5572 -1.0257
 3051SOL    HW210595   6.505   4.875   2.878 -0.7240 -0.8619  0.7049
 3052SOL     OW10596   0.440   2.196   5.213  0.0483  0.4716 -0.1577
 3052SOL    HW110597   0.381   2.220   5.285  1.4303  1.0667  0.8308
 3052SOL    HW210598   0.527   2.221   5.245  0.6968  0.8206 -2.0771
 3053SOL     OW10599   7.258   7.339   0.761 -0.0550  0.3431  0.4792
 3053SOL    HW110600   7.216   7.379   0.836 -0.2095 -0.2831  0.7338
 3053SOL    HW210601   7.245   7.245   0.773 -2.1130  0.2877 -1.5021
 3054SOL     OW10602   1.910   4.339  10.132 -0.2192 -0.7856 -0.2041
 3054SOL    HW110603   1.986   4.286  10.158  0.5581  0.7824  0.8605
 3054SOL    HW210604   1.869   4.288  10.061  2.4742 -1.1701 -1.6290
 3055SOL     OW10605   4.604   1.992   3.222  0.5269 -0.2232 -0.2282
 3055SOL    HW110606   4.641   1.950   3.145  0.5976 -0.1407 -0.2400
 3055SOL    HW210607   4.598   2.085   3.198  1.5074 -0.0277  0.2260
 3056SOL     OW10608   1.624   5.739   2.531  0.2603  0.5788 -0.0596
 3056SOL    HW110609   1.567   5.809   2.562 -1.0307 -0.6367  0.4172
 3056SOL    HW210610   1.711   5.763   2.562 -0.4594  1.0546  1.7065
 3057SOL     OW10611   6.694   0.629   8.314 -0.3039 -0.1899  0.0505
 3057SOL    HW110612   6.788   0.618   8.298  0.1587  2.6975  0.1595
 3057SOL    HW210613   6.655   0.634   8.226  0.1440  1.5215 -0.0937
 3058SOL     OW10614   5.782   1.088   7.345 -0.4773 -0.0735 -0.3695
 3058SOL    HW110615   5.758   1.012   7.291  1.5675 -0.4241 -0.8766
 3058SOL    HW210616   5.851   1.056   7.403 -0.1862  1.1870  0.0196
 3059SOL     OW10617   7.498   3.296  12.308  0.0394 -0.0050 -0.2333
 3059SOL    HW110618   7.550   3.327  12.382 -0.5622  1.2463 -0.3198
 3059SOL    HW210619   7.555   3.309  12.232  0.1537 -0.0176 -0.1506
 3060SOL     OW10620   3.360   2.263   6.121 -0.2927 -0.1720  0.6253
 3060SOL    HW110621   3.311   2.249   6.203 -0.7650 -0.2095  0.3390
 3060SOL    HW210622   3.308   2.328   6.074 -0.1355 -0.3186  0.2534
 3061SOL     OW10623   3.890   0.829   6.421  0.0474  0.6005 -0.0487
 3061SOL    HW110624   3.957   0.819   6.354  0.9132  1.3881  0.6696
 3061SOL    HW210625   3.932   0.882   6.489 -0.7828 -0.2042  1.1366
 3062SOL     OW10626   4.648   6.535   2.168 -0.1814 -0.0223  0.0293
 3062SOL    HW110627   4.558   6.568   2.166 -0.9227 -1.9003  0.5303
 3062SOL    HW210628   4.665   6.504   2.079 -0.7201 -1.3286  0.3569
 3063SOL     OW10629   0.926   3.018   8.210  0.4299  0.5714 -0.1864
 3063SOL    HW110630   0.854   3.027   8.146 -0.0116 -0.1169  0.1978
 3063SOL    HW210631   1.005   3.034   8.159  0.2195 -1.7598 -1.3657
 3064SOL     OW10632   0.103   0.426   0.532  0.0141  0.5291 -0.2714
 3064SOL    HW110633   0.059   0.474   0.462  0.7268  2.4374  0.5086
 3064SOL    HW210634   0.054   0.449   0.611  1.3971  1.4359  0.3750
 3065SOL     OW10635   4.967   5.932   7.703  0.8191  0.1014 -0.5014
 3065SOL    HW110636   5.002   5.994   7.767  0.8639 -1.8618  1.4718
 3065SOL    HW210637   4.878   5.913   7.733  0.3611  0.0626 -1.7782
 3066SOL     OW10638   2.965   6.056  10.902  0.5964 -0.2285  0.5853
 3066SOL    HW110639   2.959   6.151  10.912 -0.0315 -0.4157  2.3629
 3066SOL    HW210640   3.058   6.040  10.888  0.4953  0.7580 -1.7773
 3067SOL     OW10641   0.290   0.113   7.985  0.1491  0.0816 -0.7877
 3067SOL    HW110642   0.326   0.123   7.897  0.2105 -1.2122 -0.9305
 3067SOL    HW210643   0.300   0.020   8.005  0.0004  0.3254  0.5340
 3068SOL     OW10644   5.657   0.644   6.294  0.4178 -0.0388  1.0262
 3068SOL    HW110645   5.571   0.642   6.337  0.6502  1.1731  1.6062
 3068SOL    HW210646   5.712   0.587   6.348 -0.5275 -2.7307 -0.6527
 3069SOL     OW10647   4.219   2.685   5.232  0.2501 -0.4770  0.5745
 3069SOL    HW110648   4.143   2.642   5.269  0.2077  0.0984  1.1674
 3069SOL    HW210649   4.238   2.635   5.152 -1.0673 -0.3004  0.1294
 3070SOL     OW10650   0.987   2.654   3.017 -0.3233 -0.2272  0.2190
 3070SOL    HW110651   1.049   2.605   2.963 -0.0570  1.5031 -1.1231
 3070SOL    HW210652   0.921   2.589   3.042  0.7415 -1.5729 -0.3063
 3071SOL     OW10653   0.020   7.599  10.907 -0.3601  0.5475  0.0490
 3071SOL    HW110654   0.111   7.583  10.934 -0.9339  0.8021  2.3137
 3071SOL    HW210655  -0.009   7.514  10.873  1.1266  0.8378 -2.1760
 3072SOL     OW10656   4.891   2.943   7.756 -0.1205  0.0323  0.3324
 3072SOL    HW110657   4.877   2.871   7.694 -1.3484 -1.4254  2.1753
 3072SOL    HW210658   4.983   2.966   7.747  0.0155 -0.9687 -1.1222
 3073SOL     OW10659   3.961   7.388  11.208 -0.0928 -0.1228  0.1758
 3073SOL    HW110660   3.954   7.423  11.297  1.6786 -0.1568  0.3734
 3073SOL    HW210661   3.901   7.313  11.207  0.0257 -0.2588  1.4239
 3074SOL     OW10662   5.915   2.232   0.207 -0.5316  0.1746  0.4804
 3074SOL    HW110663   5.848   2.164   0.211 -0.4644  0.1002  0.3430
 3074SOL    HW210664   5.930   2.246   0.114 -0.7097  0.5417  0.5043
 3075SOL     OW10665   0.887   4.645   0.010  0.4926 -0.0786  0.1212
 3075SOL    HW110666   0.926   4.645  -0.078  1.0168  1.1809  0.3315
 3075SOL    HW210667   0.802   4.603  -0.001  0.7022 -0.2545 -0.9151
 3076SOL     OW10668   0.730   3.483   3.548 -0.3196  0.2014 -0.4281
 3076SOL    HW110669   0.768   3.429   3.479  1.5487  0.0966  0.5897
 3076SOL    HW210670   0.640   3.453   3.556  0.5050 -2.4640 -0.2203
 3077SOL     OW10671   5.897   1.120   8.108  0.0397  0.8556  0.1274
 3077SOL    HW110672   5.955   1.044   8.111  0.5018  1.1908 -0.1246
 3077SOL    HW210673   5.809   1.084   8.102  0.2984  0.3402 -0.6273
 3078SOL     OW10674   7.593   2.477  11.259 -0.5492 -0.0425  0.4330
 3078SOL    HW110675   7.559   2.561  11.230  0.3059  0.1047 -0.2230
 3078SOL    HW210676   7.559   2.465  11.347 -0.9741  0.8202  0.3932
 3079SOL     OW10677   7.579   4.834   1.084 -0.0722 -0.9897  0.4481
 3079SOL    HW110678   7.484   4.840   1.097  0.0398  1.0811  0.6456
 3079SOL    HW210679   7.616   4.855   1.170  0.5752 -0.5711  0.0757
 3080SOL     OW10680   7.490   7.123   3.254 -0.4373 -0.2547  0.0011
 3080SOL    HW110681   7.438   7.048   3.228 -1.6926  0.3685  0.5965
 3080SOL    HW210682   7.521   7.101   3.342 -0.7719 -0.0996  0.1596
 3081SOL     OW10683   7.551   5.748   4.534  0.1797 -0.3022 -0.4409
 3081SOL    HW110684   7.587   5.827   4.574  0.6585 -0.8620  0.2662
 3081SOL    HW210685   7.468   5.776   4.495 -0.1597  0.3408  0.6959
 3082SOL     OW10686   7.563   3.746   1.099 -0.4014  0.1169 -0.4164
 3082SOL    HW110687   7.599   3.664   1.065 -0.1134  0.4585 -0.9522
 3082SOL    HW210688   7.617   3.765   1.176  0.1708  0.2913 -0.8457
 3083SOL     OW10689   2.339   0.880  11.374  0.3170 -0.0571 -0.3665
 3083SOL    HW110690   2.427   0.860  11.406  0.3988  1.0642  0.1603
 3083SOL    HW210691   2.284   0.810  11.409  0.4713  0.8740  1.9293
 3084SOL     OW10692   5.206   2.660   0.237  0.4078  0.4805 -0.4594
 3084SOL    HW110693   5.208   2.755   0.228  1.4523  0.4612 -0.5739
 3084SOL    HW210694   5.157   2.645   0.318  0.2794  1.1195 -0.4114
 3085SOL     OW10695   4.198   7.353   0.095  0.5849 -0.1536 -0.2135
 3085SOL    HW110696   4.259   7.306   0.038  0.5614 -0.0211 -0.3488
 3085SOL    HW210697   4.179   7.434   0.048 -1.1263 -0.9702 -1.0544
 3086SOL     OW10698   5.983   2.481   0.790  0.1053 -0.4080  0.1872
 3086SOL    HW110699   5.919   2.435   0.736 -3.0793  0.2619  3.0124
 3086SOL    HW210700   5.931   2.523   0.859  3.4508  1.9359  1.5956
 3087SOL     OW10701   7.216   1.216   9.384 -0.2850  0.6101 -0.5045
 3087SOL    HW110702   7.172   1.195   9.466 -1.6550  1.6844 -0.9193
 3087SOL    HW210703   7.289   1.155   9.379 -2.9100 -2.7973 -0.7734
 3088SOL     OW10704   2.264   5.909   6.645 -0.2268  0.5832  0.4652
 3088SOL    HW110705   2.341   5.952   6.682  1.7888 -1.5029 -0.9811
 3088SOL    HW210706   2.231   5.970   6.579  1.7616  0.5794 -0.6249
 3089SOL     OW10707   3.188   4.508   8.651 -0.6953 -0.4112  0.1188
 3089SOL    HW110708   3.275   4.546   8.663 -1.2792  0.4763  1.9467
 3089SOL    HW210709   3.150   4.556   8.578 -0.5209  0.8627  0.8439
 3090SOL     OW10710   0.940   1.280   5.527  0.7205 -0.5931 -0.1512
 3090SOL    HW110711   0.981   1.362   5.502  0.8035 -1.0523 -1.6503
 3090SOL    HW210712   0.865   1.305   5.581 -0.5053  0.6388 -2.2796
 3091SOL     OW10713   4.866   1.253  12.241  0.1814 -0.2734  0.1005
 3091SOL    HW110714   4.857   1.158  12.249 -1.1326 -0.1417  0.4626
 3091SOL    HW210715   4.783   1.288  12.273  0.4169  0.9827 -0.5751
 3092SOL     OW10716   0.074   2.115   8.638 -0.5516  0.3517  0.1734
 3092SOL    HW110717   0.145   2.052   8.645 -0.3237  0.3437 -1.7301
 3092SOL    HW210718   0.074   2.161   8.723  1.0315 -0.3499  0.5901
 3093SOL     OW10719   6.918   0.335   6.846  0.0468  1.0752 -0.4688
 3093SOL    HW110720   6.983   0.354   6.913 -0.4740  0.1749  0.3089
 3093SOL    HW210721   6.939   0.396   6.775  2.0357  0.4732 -0.4512
 3094SOL     OW10722   0.930   4.043   9.281 -0.2693 -0.6362  0.3966
 3094SOL    HW110723   0.937   4.117   9.340  1.5260  0.5943 -1.2358
 3094SOL    HW210724   0.891   4.079   9.201  0.0959 -1.5650 -0.2286
 3095SOL     OW10725   7.274   6.432   7.554  0.3020  0.1965  0.3240
 3095SOL    HW110726   7.302   6.429   7.463 -0.0936  0.8891  0.1755
 3095SOL    HW210727   7.241   6.521   7.566 -0.1610 -0.0612  0.9942
 3096SOL     OW10728   0.405   1.713   4.222 -0.0978  0.0781 -0.5776
 3096SOL    HW110729   0.432   1.652   4.290  2.4269 -0.4449 -1.9087
 3096SOL    HW210730   0.310   1.713   4.225 -0.1282  0.7782  3.4763
 3097SOL     OW10731   1.935   5.329   5.032  0.1386 -0.2897  0.2767
 3097SOL    HW110732   1.944   5.349   5.125  0.9539  0.5250  0.0348
 3097SOL    HW210733   1.842   5.342   5.014 -0.2292 -1.4263  1.1808
 3098SOL     OW10734   4.581   4.228   4.523 -0.0523  0.4596  0.7001
 3098SOL    HW110735   4.612   4.287   4.455 -2.2531  0.0476 -0.7627
 3098SOL    HW210736   4.623   4.144   4.503 -1.4791  0.0556 -0.9104
 3099SOL     OW10737   0.544   0.648  11.522  0.2200  0.6512 -0.0692
 3099SOL    HW110738   0.469   0.648  11.461  0.9328  1.7886 -0.9953
 3099SOL    HW210739   0.608   0.590  11.481 -0.0517 -0.1347  0.6035
 3100SOL     OW10740   5.369   4.136   6.869  0.1833  0.4139  0.6483
 3100SOL    HW110741   5.277   4.142   6.844  0.3542 -0.6250 -0.3390
 3100SOL    HW210742   5.412   4.102   6.790  1.4645  1.2324  0.9816
 3101SOL     OW10743   2.775   2.687   2.745 -0.5978  0.0821  0.0600
 3101SOL    HW110744   2.683   2.708   2.730 -0.4593  0.9874  0.4495
 3101SOL    HW210745   2.796   2.624   2.676 -1.7077 -0.7379  0.4413
 3102SOL     OW10746   3.315   2.882   7.514  0.2781 -0.4949 -0.0854
 3102SOL    HW110747   3.261   2.845   7.584  0.7626 -0.4778  0.2957
 3102SOL    HW210748   3.382   2.932   7.559 -0.0254  0.3793 -0.5870
 3103SOL     OW10749   2.819   4.985   0.798 -0.1073  0.5748  0.9410
 3103SOL    HW110750   2.773   4.904   0.778  0.9908  0.4071 -1.0967
 3103SOL    HW210751   2.752   5.053   0.795 -0.2203  0.4656 -2.8422
 3104SOL     OW10752   0.853   2.169   6.498  0.4843  1.0296  0.2201
 3104SOL    HW110753   0.947   2.170   6.483  0.3107  4.4611 -1.4815
 3104SOL    HW210754   0.840   2.219   6.578  0.0697  1.5529 -0.1656
 3105SOL     OW10755   5.025   6.968   2.259 -0.3168  0.1704  0.1386
 3105SOL    HW110756   5.063   6.882   2.280  0.9342  0.1675 -1.8094
 3105SOL    HW210757   4.931   6.952   2.253 -0.0077 -1.3599 -1.3120
 3106SOL     OW10758   0.283   1.932   8.664  0.4238 -0.1056  0.4653
 3106SOL    HW110759   0.369   1.916   8.704 -0.0505  0.2699  1.6766
 3106SOL    HW210760   0.285   1.883   8.582  2.1824  0.7439 -0.0480
 3107SOL     OW10761   7.382   7.396  11.985  0.1820  0.3569  0.3834
 3107SOL    HW110762   7.332   7.466  12.027 -0.3571  1.1833 -1.5092
 3107SOL    HW210763   7.315   7.335  11.954  0.6065 -0.5976  1.3269
 3108SOL     OW10764   4.604   1.033   3.909  0.5995  0.5058 -0.6634
 3108SOL    HW110765   4.591   1.126   3.887  0.7372  0.8320  0.5530
 3108SOL    HW210766   4.696   1.027   3.933  0.0819  0.5739  1.5316
 3109SOL     OW10767   4.801   2.153   4.461  0.2984  0.2149  0.0864
 3109SOL    HW110768   4.794   2.174   4.368  0.7053 -0.4049 -0.0872
 3109SOL    HW210769   4.721   2.105   4.482  1.6052 -2.4968 -0.7258
 3110SOL     OW10770   7.342   2.991  12.202 -0.1071 -0.5989  0.2617
 3110SOL    HW110771   7.412   3.045  12.164  0.4132 -1.9957 -0.8223
 3110SOL    HW210772   7.370   2.901  12.187 -2.3288 -1.2086 -0.5331
 3111SOL     OW10773   1.293   1.113   0.251 -0.5835 -0.7676 -0.0199
 3111SOL    HW110774   1.263   1.204   0.251  1.3399 -0.0198  2.4217
 3111SOL    HW210775   1.233   1.068   0.311 -0.2137 -0.5693  0.5066
 3112SOL     OW10776   0.976   5.257  11.897  0.4351 -0.2121 -0.5162
 3112SOL    HW110777   0.936   5.173  11.922  0.1006  0.1475  0.1727
 3112SOL    HW210778   1.025   5.237  11.817 -3.4572 -0.0570 -3.2217
 3113SOL     OW10779   0.955   4.444  10.617 -0.1654 -0.3477 -0.0359
 3113SOL    HW110780   0.865   4.411  10.618  0.1104 -1.1168  0.5977
 3113SOL    HW210781   1.007   4.371  10.584  0.4810 -0.6462  1.5493
 3114SOL     OW10782   6.243   0.720   4.918  0.1125  0.1489  0.2346
 3114SOL    HW110783   6.228   0.780   4.845 -0.9791  0.9240  1.0494
 3114SOL    HW210784   6.221   0.772   4.996  0.6633 -0.8366  1.0682
 3115SOL     OW10785   3.148   4.814  12.349  0.0305  0.2379 -0.6103
 3115SOL    HW110786   3.197   4.845  12.425 -0.5542 -0.6669  0.1419
 3115SOL    HW210787   3.108   4.893  12.313  0.3454  0.6776 -0.0084
 3116SOL     OW10788   4.568   0.036   8.012 -0.3907 -0.0330  0.8472
 3116SOL    HW110789   4.659   0.007   8.005 -0.2364  0.5580  0.2170
 3116SOL    HW210790   4.523  -0.035   8.057  0.0274 -1.1268 -0.4089
 3117SOL     OW10791   1.496   5.325   2.995 -0.4220  0.4152 -0.0818
 3117SOL    HW110792   1.530   5.355   3.080 -0.5465  0.9138 -0.2051
 3117SOL    HW210793   1.401   5.327   3.005 -0.4818  1.9146 -0.7084
 3118SOL     OW10794   0.194   1.540  10.042 -0.3932 -0.8055 -0.3431
 3118SOL    HW110795   0.175   1.632  10.023  1.0652 -0.8104 -1.9895
 3118SOL    HW210796   0.108   1.501  10.059 -1.3012  0.3433 -2.0401
 3119SOL     OW10797   0.959   6.214  10.878 -0.5844  0.3703  0.1223
 3119SOL    HW110798   0.995   6.291  10.833  0.1071 -0.0547 -0.0796
 3119SOL    HW210799   0.914   6.249  10.954 -0.1847  0.9732  0.0879
 3120SOL     OW10800   4.473   2.464   2.068 -0.2592 -0.0626  0.1601
 3120SOL    HW110801   4.387   2.487   2.034  0.3850  3.3818  0.5175
 3120SOL    HW210802   4.481   2.514   2.149  2.0739 -0.2699  0.1293
 3121SOL     OW10803   1.569   1.816   5.335 -0.2520 -0.2747  0.0748
 3121SOL    HW110804   1.561   1.804   5.241  2.9837 -1.6092 -0.1538
 3121SOL    HW210805   1.496   1.768   5.372 -1.0210 -0.5574 -1.7227
 3122SOL     OW10806   7.342   5.406   7.833  0.5482 -0.0903  0.8049
 3122SOL    HW110807   7.311   5.487   7.874 -1.4945 -1.1369  1.4492
 3122SOL    HW210808   7.419   5.382   7.884  2.7159  2.6357 -0.8995
 3123SOL     OW10809   4.544   6.454  11.547 -0.3059 -0.2919  0.5165
 3123SOL    HW110810   4.504   6.380  11.592 -0.3557  0.0787  1.0895
 3123SOL    HW210811   4.625   6.418  11.510 -1.0593 -1.0096 -0.5254
 3124SOL     OW10812   2.820   1.701   2.056 -0.0475  0.0521  0.6823
 3124SOL    HW110813   2.888   1.637   2.075 -0.0652 -0.2511 -0.1838
 3124SOL    HW210814   2.776   1.666   1.978 -0.1852  1.0277  0.3069
 3125SOL     OW10815   5.418   1.158   0.548 -0.1557 -0.2015  0.2987
 3125SOL    HW110816   5.401   1.070   0.582 -0.6352 -0.4719 -0.6047
 3125SOL    HW210817   5.474   1.143   0.471  1.6707  0.4596  1.4539
 3126SOL     OW10818   0.650   0.367   9.459  0.3016 -0.6633 -0.0200
 3126SOL    HW110819   0.569   0.382   9.409  0.8029  0.4562 -0.5435
 3126SOL    HW210820   0.719   0.399   9.401  0.8612  1.4394  1.6622
 3127SOL     OW10821   2.511   6.851  12.375  0.2101  0.0525  0.2648
 3127SOL    HW110822   2.548   6.826  12.290  1.5233 -0.7207  1.0233
 3127SOL    HW210823   2.581   6.902  12.417 -0.0925 -0.2941  1.2143
 3128SOL     OW10824   5.194   7.861   1.398 -0.6673  0.1776 -0.2679
 3128SOL    HW110825   5.211   7.857   1.492 -0.9947  0.6725 -0.1852
 3128SOL    HW210826   5.114   7.812   1.385 -1.3812  1.2598 -0.0884
 3129SOL     OW10827   4.689   7.374   7.194 -0.3088 -0.7843 -0.0574
 3129SOL    HW110828   4.639   7.396   7.116  0.1444  0.1570 -0.1018
 3129SOL    HW210829   4.629   7.393   7.267 -0.6531 -1.4464 -0.1643
 3130SOL     OW10830   7.869   2.931   9.513  0.0475  0.1433 -0.1709
 3130SOL    HW110831   7.891   2.903   9.602 -1.1428  0.1595  0.1432
 3130SOL    HW210832   7.952   2.960   9.476  0.4947  0.5224  1.0777
 3131SOL     OW10833   7.294   0.634   3.025  0.0145  0.5666 -0.0157
 3131SOL    HW110834   7.356   0.699   3.058 -0.4350  1.4445 -0.8381
 3131SOL    HW210835   7.289   0.652   2.931 -1.4494  0.4954  0.0265
 3132SOL     OW10836   0.301   2.488   4.838  0.5478 -0.0087  0.0272
 3132SOL    HW110837   0.307   2.565   4.895  0.5521 -1.3439  1.9601
 3132SOL    HW210838   0.212   2.491   4.804 -0.0366 -0.0174  1.4640
 3133SOL     OW10839   5.533   6.322   9.325 -0.5311  0.2553  0.2461
 3133SOL    HW110840   5.536   6.394   9.387  0.0598 -0.1584  0.7056
 3133SOL    HW210841   5.614   6.330   9.275 -0.1546 -0.4478  0.7232
 3134SOL     OW10842   7.014   1.913   4.058  0.0340 -0.5575 -0.2339
 3134SOL    HW110843   7.054   1.994   4.088 -2.0971  1.3112 -2.0879
 3134SOL    HW210844   7.072   1.883   3.988 -0.2110  0.5381 -0.9354
 3135SOL     OW10845   1.261   1.813   2.192  0.9979 -0.0110 -0.1773
 3135SOL    HW110846   1.286   1.890   2.141  0.3439  1.6990  1.9174
 3135SOL    HW210847   1.344   1.769   2.211  1.5855  1.1706  0.0685
 3136SOL     OW10848   6.733   1.874   3.161 -0.3836 -0.0524 -0.0573
 3136SOL    HW110849   6.654   1.837   3.200  0.0392 -0.3919  0.4874
 3136SOL    HW210850   6.756   1.814   3.091 -0.9625  0.3867 -0.6360
 3137SOL     OW10851   2.595   3.700  11.875 -0.1173  0.2184  0.0472
 3137SOL    HW110852   2.636   3.786  11.886  0.3355  0.1525 -1.0239
 3137SOL    HW210853   2.535   3.712  11.801 -2.2731  0.3818  1.7108
 3138SOL     OW10854   0.522   2.064  12.333  0.1184 -0.1625 -0.0853
 3138SOL    HW110855   0.463   2.055  12.408 -1.1769  1.8208 -0.7731
 3138SOL    HW210856   0.480   2.130  12.277  3.5518  2.3165 -0.0619
 3139SOL     OW10857   0.996   6.102   4.754  0.4459 -0.4304 -0.2856
 3139SOL    HW110858   1.019   6.046   4.829  0.3633  0.2376  0.2496
 3139SOL    HW210859   0.901   6.090   4.745  0.3171  0.1213  0.2539
 3140SOL     OW10860   1.404   4.063  10.215 -0.1153 -0.4751  0.4619
 3140SOL    HW110861   1.454   4.144  10.225  0.8222 -0.8676 -0.7559
 3140SOL    HW210862   1.347   4.079  10.139  0.0674 -0.9466  0.2243
 3141SOL     OW10863   3.624   4.711   2.476  0.0085  0.4849 -0.2725
 3141SOL    HW110864   3.657   4.621   2.479 -0.2483  0.4206  1.5833
 3141SOL    HW210865   3.672   4.751   2.403  1.2055 -0.7335 -0.2000
 3142SOL     OW10866   4.157   0.440   4.554 -0.2100  0.5212 -0.2733
 3142SOL    HW110867   4.225   0.476   4.610  1.8879 -2.1048 -0.9227
 3142SOL    HW210868   4.133   0.512   4.496  2.7081  1.3387 -0.6171
 3143SOL     OW10869   4.098   6.605   1.205 -0.0279 -0.5431 -0.3727
 3143SOL    HW110870   4.094   6.647   1.291 -0.1788 -0.5264 -0.3869
 3143SOL    HW210871   4.095   6.511   1.223  0.7785 -0.5616 -0.3157
 3144SOL     OW10872   1.630   5.961   7.891  0.2433 -0.0455 -0.2536
 3144SOL    HW110873   1.637   5.983   7.984 -1.0797 -1.2214  0.1623
 3144SOL    HW210874   1.617   6.045   7.847 -0.0204  0.4376  0.7256
 3145SOL     OW10875   4.892   5.661  10.491  0.0054 -0.2525  0.8220
 3145SOL    HW110876   4.807   5.687  10.457  0.2243 -0.9083 -0.2736
 3145SOL    HW210877   4.886   5.566  10.502  1.1813 -0.5946 -1.0664
 3146SOL     OW10878   5.388   1.912   7.052  0.1568 -0.1104  0.3777
 3146SOL    HW110879   5.416   1.935   7.141  0.3214 -0.4502  0.4165
 3146SOL    HW210880   5.387   1.995   7.005  2.0826 -0.1781  0.1383
 3147SOL     OW10881   5.415   4.984   3.564  0.2646  0.3657 -0.2403
 3147SOL    HW110882   5.474   4.961   3.636 -1.4031  0.7825  1.3378
 3147SOL    HW210883   5.384   5.072   3.587 -3.4576 -1.0386  0.8119
 3148SOL     OW10884   2.503   7.141   6.224 -0.3771  0.1535  0.2445
 3148SOL    HW110885   2.548   7.214   6.182  0.8298 -0.0665  1.1078
 3148SOL    HW210886   2.471   7.088   6.151  1.0726  0.1405 -0.4179
 3149SOL     OW10887   3.130   5.039   2.723 -0.5218  0.1419  0.1612
 3149SOL    HW110888   3.131   5.134   2.714 -1.1699  0.1526  0.2001
 3149SOL    HW210889   3.202   5.009   2.667  0.2299  0.7000  0.8067
 3150SOL     OW10890   4.916   0.885   2.489  0.4881  0.9504  0.0467
 3150SOL    HW110891   4.832   0.864   2.449  0.3880 -0.6840  1.0361
 3150SOL    HW210892   4.904   0.866   2.582  1.7431  1.3451  0.3132
 3151SOL     OW10893   4.169   1.936   6.002  0.3185  0.1130 -0.2056
 3151SOL    HW110894   4.078   1.956   5.980 -0.2468 -0.0729  1.7679
 3151SOL    HW210895   4.174   1.840   6.001  0.8161  0.1326 -1.4053
 3152SOL     OW10896   5.850   6.936   0.259 -0.5316 -0.1339 -0.1602
 3152SOL    HW110897   5.857   7.004   0.192  1.4430  0.3546  0.4683
 3152SOL    HW210898   5.910   6.868   0.231 -1.1919 -0.8449  0.1137
 3153SOL     OW10899   4.207   5.781   9.787 -0.0019  0.2774  0.0775
 3153SOL    HW110900   4.247   5.782   9.700 -0.3368  0.8295 -0.0754
 3153SOL    HW210901   4.280   5.770   9.848  0.5836  2.6480 -0.1102
 3154SOL     OW10902   6.398   0.307   7.510  0.5944 -0.1198 -1.0140
 3154SOL    HW110903   6.366   0.392   7.538  1.1413 -0.3372  0.3579
 3154SOL    HW210904   6.356   0.244   7.569  1.9610 -0.5762 -0.4622
 3155SOL     OW10905   6.446   7.709   5.061 -0.4068  0.7326  0.3334
 3155SOL    HW110906   6.478   7.719   4.971  0.7068 -2.3850  0.2734
 3155SOL    HW210907   6.524   7.692   5.113 -1.2788 -0.1192  1.4177
 3156SOL     OW10908   3.863   0.330   4.528  0.0841 -0.2213 -0.2369
 3156SOL    HW110909   3.882   0.246   4.487  0.0489 -0.4069  0.1269
 3156SOL    HW210910   3.942   0.353   4.576 -0.4516 -0.8360  1.0003
 3157SOL     OW10911   5.938   1.956   9.332  0.6528 -0.5092  0.0118
 3157SOL    HW110912   5.979   1.948   9.245 -0.3266  1.5109 -0.7043
 3157SOL    HW210913   5.883   1.878   9.339  0.0566 -0.2868 -1.6128
 3158SOL     OW10914   6.927   6.928   5.478  0.1022 -0.2882  0.0187
 3158SOL    HW110915   6.886   6.868   5.416 -0.3948 -0.1685  0.2279
 3158SOL    HW210916   6.999   6.968   5.429  0.8372 -1.4992  0.0639
 3159SOL     OW10917   1.796   6.937  10.471  0.1274 -0.4958  0.2886
 3159SOL    HW110918   1.870   6.890  10.433 -0.3451 -1.3909  0.4510
 3159SOL    HW210919   1.729   6.937  10.402  0.9984  2.2257 -0.6983
 3160SOL     OW10920   7.260   3.156   0.908 -0.3337 -0.3515  0.0304
 3160SOL    HW110921   7.208   3.203   0.973 -0.1500 -0.1312  0.0213
 3160SOL    HW210922   7.220   3.179   0.824 -0.6451 -0.7324  0.0733
 3161SOL     OW10923   6.951   0.874   5.569  0.3137  0.2482  0.2676
 3161SOL    HW110924   6.913   0.871   5.656 -1.3730 -0.9825 -0.4593
 3161SOL    HW210925   6.899   0.941   5.523  1.0585  0.7420  0.1229
 3162SOL     OW10926   4.373   0.973   6.197  0.6151  0.3464  0.2371
 3162SOL    HW110927   4.385   1.013   6.111 -0.8894 -1.4106 -0.8773
 3162SOL    HW210928   4.426   1.026   6.256  0.6709  2.3982 -1.5335
 3163SOL     OW10929   7.317   5.859   8.833 -0.0919  0.6788 -0.0037
 3163SOL    HW110930   7.403   5.897   8.817 -0.0101  1.0460  1.2201
 3163SOL    HW210931   7.272   5.923   8.888 -0.3950 -0.4397  1.0721
 3164SOL     OW10932   3.661   6.755   0.808  0.4086 -0.0951  0.3519
 3164SOL    HW110933   3.728   6.723   0.868  1.8331 -0.1932 -1.2292
 3164SOL    HW210934   3.709   6.809   0.745 -1.1318  0.5315 -0.3242
 3165SOL     OW10935   1.598   2.892   6.141 -0.5614 -0.5223  0.1445
 3165SOL    HW110936   1.550   2.921   6.064  1.2853  1.1133 -0.4984
 3165SOL    HW210937   1.542   2.915   6.215 -1.0400  0.7749 -0.5889
 3166SOL     OW10938   3.040   2.891   4.696 -0.6208  0.8101  1.0323
 3166SOL    HW110939   3.086   2.821   4.650  0.3245  1.2085  1.3372
 3166SOL    HW210940   3.030   2.961   4.631 -1.6534  0.3644  0.6999
 3167SOL     OW10941   5.627   5.753   4.074  0.1519 -0.1214 -0.0199
 3167SOL    HW110942   5.621   5.662   4.047  1.2634  0.2882 -1.8007
 3167SOL    HW210943   5.542   5.791   4.049  0.3099 -0.2896 -0.8416
 3168SOL     OW10944   2.880   6.671   2.917  0.5362 -0.6439 -0.2198
 3168SOL    HW110945   2.843   6.650   3.003  0.1979 -0.9137 -0.4326
 3168SOL    HW210946   2.815   6.729   2.877  1.2889  0.5364  0.2183
 3169SOL     OW10947   2.717   6.863  12.015 -0.0648 -0.4421 -0.1302
 3169SOL    HW110948   2.656   6.805  11.969  0.9198  0.0804 -2.1993
 3169SOL    HW210949   2.674   6.949  12.012  0.6729 -0.1032 -1.4604
 3170SOL     OW10950   6.919   1.297   2.165 -0.4350 -0.0901 -0.1915
 3170SOL    HW110951   6.872   1.366   2.211 -0.2881 -1.3707  2.0000
 3170SOL    HW210952   6.927   1.330   2.075  0.0733  2.9674  0.8264
 3171SOL     OW10953   7.803   6.033   5.247 -0.0547 -1.0637  0.1655
 3171SOL    HW110954   7.758   5.957   5.285 -1.2886  0.1771  1.3096
 3171SOL    HW210955   7.733   6.084   5.207  0.1524  1.1746  2.4101
 3172SOL     OW10956   7.120   7.335   2.386  0.1420 -0.5963  0.2415
 3172SOL    HW110957   7.173   7.394   2.440 -1.0402  0.8108 -0.0810
 3172SOL    HW210958   7.030   7.359   2.406 -0.3489 -1.4138 -0.9017
 3173SOL     OW10959   0.372   7.189   9.306  0.6738  0.2168 -0.3318
 3173SOL    HW110960   0.343   7.265   9.255  1.1999  0.3252 -0.4747
 3173SOL    HW210961   0.323   7.195   9.388 -1.1116 -0.6324 -1.2747
 3174SOL     OW10962   5.596   7.707  10.451  0.0089 -0.1762 -0.1805
 3174SOL    HW110963   5.682   7.722  10.491 -0.0638  0.0425 -0.1038
 3174SOL    HW210964   5.577   7.614  10.468  0.7184 -0.5070 -1.1546
 3175SOL     OW10965   4.543   0.019   1.609 -0.1754 -0.8515 -0.2176
 3175SOL    HW110966   4.560   0.028   1.515 -0.8051 -0.6189 -0.3162
 3175SOL    HW210967   4.627  -0.007   1.646  0.5651  0.8302 -0.5931
 3176SOL     OW10968   0.668   0.934   0.173  0.3047  0.0760  0.2511
 3176SOL    HW110969   0.693   0.874   0.103  1.5254  0.1279  0.6247
 3176SOL    HW210970   0.748   0.983   0.193 -0.6408  1.8146 -0.0155
 3177SOL     OW10971   2.421   3.048   9.997  0.3481 -0.2363 -0.9596
 3177SOL    HW110972   2.488   3.044  10.065 -0.9218 -0.8377  0.3145
 3177SOL    HW210973   2.420   3.140   9.970  0.0407  0.2910  0.7434
 3178SOL     OW10974   5.963   0.904  10.796  0.2043 -0.3320 -0.6215
 3178SOL    HW110975   6.000   0.858  10.721  1.6455  2.6788 -1.8931
 3178SOL    HW210976   6.024   0.886  10.868 -0.9283 -2.8310 -0.1660
 3179SOL     OW10977   7.381   0.849   1.869 -0.2834 -0.4344 -0.3528
 3179SOL    HW110978   7.381   0.920   1.933 -0.6317 -0.3133 -0.4856
 3179SOL    HW210979   7.453   0.792   1.896  2.3600  1.7306 -2.1970
 3180SOL     OW10980   1.021   1.058   3.423 -0.4209  0.5926  0.4535
 3180SOL    HW110981   0.997   0.984   3.479 -0.4272  0.1127 -0.1711
 3180SOL    HW210982   1.114   1.072   3.439  0.0786 -0.8683 -0.9026
 3181SOL     OW10983   4.496   7.803   7.008  0.3224  0.7620 -0.7582
 3181SOL    HW110984   4.587   7.791   7.037 -0.4147  0.1255  1.4750
 3181SOL    HW210985   4.481   7.731   6.946  1.0831  0.3567 -0.4825
 3182SOL     OW10986   0.460   5.934   7.299  0.0542  0.4725  0.4458
 3182SOL    HW110987   0.383   5.882   7.278  1.6574 -1.5006 -1.0149
 3182SOL    HW210988   0.469   5.995   7.226  2.0450 -2.0895 -1.6718
 3183SOL     OW10989   6.960   2.699   7.670 -0.2430  0.2053 -0.2359
 3183SOL    HW110990   6.980   2.638   7.599 -0.1943 -1.1103  0.8514
 3183SOL    HW210991   6.976   2.648   7.750 -0.5991  1.5321  0.7140
 3184SOL     OW10992   4.877   3.053   9.710  0.4768  0.6808  0.6491
 3184SOL    HW110993   4.834   3.114   9.770 -1.2400  0.7880 -0.5937
 3184SOL    HW210994   4.816   3.045   9.637  0.2877 -3.0028  1.0222
 3185SOL     OW10995   5.346   3.880  11.773  0.2487  0.4920  0.0862
 3185SOL    HW110996   5.375   3.952  11.718  0.6695 -1.1642 -1.9677
 3185SOL    HW210997   5.252   3.872  11.756 -0.4669  2.3234  2.5509
 3186SOL     OW10998   3.670   7.183   6.985 -0.2937  0.1276 -0.5645
 3186SOL    HW110999   3.692   7.246   7.053 -0.2183  1.1694 -1.5237
 3186SOL    HW211000   3.726   7.108   7.003  1.2791  1.2271 -0.7001
 3187SOL     OW11001   6.213   5.448   5.808 -0.0158 -0.3684 -0.4749
 3187SOL    HW111002   6.162   5.427   5.730  1.3823  0.6314 -1.7033
 3187SOL    HW211003   6.200   5.542   5.820  0.2353 -0.4120  0.1775
 3188SOL     OW11004   1.108   5.780  10.908  0.0508  0.0851 -0.3569
 3188SOL    HW111005   1.143   5.694  10.932 -0.8773 -0.4177 -0.7528
 3188SOL    HW211006   1.049   5.762  10.835 -1.1971  0.8652  0.4270
 3189SOL     OW11007   2.741   4.740  10.260  0.2454  0.5359 -0.3122
 3189SOL    HW111008   2.794   4.684  10.203 -0.4855 -1.0077  0.4739
 3189SOL    HW211009   2.785   4.737  10.345 -0.8240 -0.4108  0.2301
 3190SOL     OW11010   7.839   2.386  10.061 -0.1033 -0.1168  0.6945
 3190SOL    HW111011   7.848   2.356  10.152  0.3815  1.4545  1.1860
 3190SOL    HW211012   7.912   2.445  10.047 -0.0100 -0.5408 -0.8403
 3191SOL     OW11013   1.391   1.839   8.709  0.5050  0.2274  0.1299
 3191SOL    HW111014   1.377   1.908   8.644 -1.8619 -0.7171 -0.5085
 3191SOL    HW211015   1.382   1.758   8.659  0.4852 -0.5337  1.3252
 3192SOL     OW11016   7.026   2.524  11.997  0.5790 -0.0279 -0.1990
 3192SOL    HW111017   7.063   2.610  12.017 -0.2446  0.1145  0.7891
 3192SOL    HW211018   7.091   2.483  11.940  0.1876  1.8978 -2.1466
 3193SOL     OW11019   7.665   4.904   3.977 -0.1914  0.0333 -0.0158
 3193SOL    HW111020   7.745   4.956   3.983 -0.9124  1.2461 -0.6397
 3193SOL    HW211021   7.600   4.964   3.941 -1.1863 -1.1596 -0.2562
 3194SOL     OW11022   1.032   0.630   1.112 -0.5217 -0.1142 -0.0558
 3194SOL    HW111023   1.031   0.726   1.111 -3.3086 -0.0487 -0.9912
 3194SOL    HW211024   1.046   0.606   1.021 -0.1135 -0.6085  0.1353
 3195SOL     OW11025   1.278   0.633   0.347 -0.1169  0.1532 -0.0791
 3195SOL    HW111026   1.326   0.565   0.396 -0.6662 -0.2718 -0.1204
 3195SOL    HW211027   1.199   0.589   0.317  0.6074  0.1622 -2.1091
 3196SOL     OW11028   7.250   4.567   8.274 -0.3434  0.3042 -0.3811
 3196SOL    HW111029   7.306   4.558   8.352 -0.8059  0.7164  0.0086
 3196SOL    HW211030   7.311   4.582   8.202  0.0906 -0.0492 -0.0933
 3197SOL     OW11031   0.039   5.697   4.291  0.2259  0.3602  0.2932
 3197SOL    HW111032   0.101   5.698   4.364  0.4530 -0.7120  0.1390
 3197SOL    HW211033   0.057   5.614   4.246 -0.2949  0.7490 -0.6452
 3198SOL     OW11034   2.642   7.419   5.607  0.0378 -0.0080 -0.6125
 3198SOL    HW111035   2.712   7.409   5.543 -0.7696 -0.2436 -1.4755
 3198SOL    HW211036   2.587   7.341   5.596  0.2914 -0.4452  0.9015
 3199SOL     OW11037   4.565   4.659   7.205 -0.5068  0.3837 -0.3101
 3199SOL    HW111038   4.480   4.700   7.187  0.4083  2.0148 -1.1064
 3199SOL    HW211039   4.580   4.602   7.130 -0.4944  0.7858 -0.6158
 3200SOL     OW11040   2.612   2.604   0.581  0.1774  0.4009 -0.0600
 3200SOL    HW111041   2.559   2.666   0.632 -0.3092 -0.1307  0.0891
 3200SOL    HW211042   2.606   2.636   0.491 -3.3829 -1.5811 -0.7189
 3201SOL     OW11043   4.667   0.316   2.277 -0.0448  0.1960  0.5781
 3201SOL    HW111044   4.654   0.341   2.186  0.6152  1.5075  0.8183
 3201SOL    HW211045   4.691   0.223   2.274 -1.5018 -0.1833 -0.4391
 3202SOL     OW11046   2.729   0.943   5.046 -0.9977 -0.0962 -0.1526
 3202SOL    HW111047   2.667   1.013   5.068 -0.5469  0.4354 -0.5766
 3202SOL    HW211048   2.814   0.986   5.041 -0.7714 -0.6064 -0.8008
 3203SOL     OW11049   2.002   3.669   5.033  0.0317 -0.0882 -0.7417
 3203SOL    HW111050   1.981   3.637   4.945  1.6850  0.5484 -1.4047
 3203SOL    HW211051   1.920   3.704   5.066 -0.4520  0.3221 -2.3303
 3204SOL     OW11052   1.241   0.235   9.806  0.9430 -0.1498 -0.2509
 3204SOL    HW111053   1.285   0.232   9.721  1.5734  0.9917  0.0285
 3204SOL    HW211054   1.192   0.317   9.805 -0.7575 -1.0984 -0.3151
 3205SOL     OW11055   7.439   5.752   9.752 -0.2347  0.2782  0.2389
 3205SOL    HW111056   7.346   5.734   9.763 -0.8343  1.5596 -2.1437
 3205SOL    HW211057   7.455   5.741   9.659  2.1205 -0.2921  0.6453
 3206SOL     OW11058   6.205   2.269   8.489 -0.1066 -0.5661  0.2657
 3206SOL    HW111059   6.109   2.263   8.493 -0.0767 -0.4528  1.3881
 3206SOL    HW211060   6.235   2.182   8.514  0.0951 -0.1356  1.5963
 3207SOL     OW11061   1.431   1.997   1.066  0.0835 -0.2652  0.0841
 3207SOL    HW111062   1.339   1.998   1.089  0.2152 -1.8413  0.8118
 3207SOL    HW211063   1.473   2.057   1.128 -0.5644  1.2726 -0.9225
 3208SOL     OW11064   0.246   1.675   5.004  0.2521  0.4678 -0.0461
 3208SOL    HW111065   0.175   1.719   5.051  1.8180  1.3666  1.6310
 3208SOL    HW211066   0.253   1.589   5.046 -1.7748 -0.9057 -2.2777
 3209SOL     OW11067   3.244   5.985  12.099 -0.1611  0.4941  0.4243
 3209SOL    HW111068   3.277   5.896  12.095  2.1619  1.3039 -0.6751
 3209SOL    HW211069   3.244   6.015  12.008  0.1992  1.9518  0.8674
 3210SOL     OW11070   6.384   2.876  11.635 -0.8700 -0.1065 -0.2005
 3210SOL    HW111071   6.340   2.916  11.560 -1.6219  0.8998  0.7550
 3210SOL    HW211072   6.475   2.867  11.607 -1.3692 -0.9476 -1.7014
 3211SOL     OW11073   2.613   7.138   2.250  0.5892  0.9477 -0.5643
 3211SOL    HW111074   2.672   7.208   2.276  0.4273  0.3699  1.5860
 3211SOL    HW211075   2.601   7.086   2.330 -0.8706 -0.3691 -1.5753
 3212SOL     OW11076   7.853   0.042   7.366  0.0071  0.6715 -0.1038
 3212SOL    HW111077   7.817   0.068   7.451 -0.5569 -0.0190 -0.1220
 3212SOL    HW211078   7.944   0.016   7.385 -0.5615 -0.9634  0.5881
 3213SOL     OW11079   3.253   1.519   4.179 -0.0293 -0.0425  0.2267
 3213SOL    HW111080   3.215   1.456   4.118  1.0814  0.3238 -0.8815
 3213SOL    HW211081   3.314   1.468   4.232 -0.5547 -0.2466  0.6466
 3214SOL     OW11082   2.242   4.922   2.678  0.0068 -0.6557  0.6804
 3214SOL    HW111083   2.218   4.959   2.594  1.3410  0.4369  0.7556
 3214SOL    HW211084   2.255   4.828   2.661 -0.9243 -0.6640 -0.0450
 3215SOL     OW11085   7.781   7.659  11.466 -0.2026  0.3647 -0.0315
 3215SOL    HW111086   7.774   7.594  11.536 -0.0534 -0.6189 -0.8948
 3215SOL    HW211087   7.707   7.718  11.480 -1.0288 -0.6723  0.1060
 3216SOL     OW11088   0.700   1.257   0.881  0.5475  0.1979  0.5442
 3216SOL    HW111089   0.788   1.238   0.914  1.1591  1.9474  0.0294
 3216SOL    HW211090   0.714   1.293   0.794 -0.6651  0.6926  0.5340
 3217SOL     OW11091   0.141   0.527   9.868  0.2653  0.6893 -0.2709
 3217SOL    HW111092   0.076   0.509   9.935 -0.2018 -0.9044 -1.1040
 3217SOL    HW211093   0.115   0.473   9.794  2.5987 -0.1041 -0.5988
 3218SOL     OW11094   2.672   1.050  11.562  0.0932 -0.0513 -0.7210
 3218SOL    HW111095   2.702   1.086  11.478  0.2530  0.5674 -0.4037
 3218SOL    HW211096   2.618   0.975  11.537 -1.4627  1.2495 -1.4731
 3219SOL     OW11097   0.064   1.591   5.736 -0.0772 -0.1514  0.2307
 3219SOL    HW111098   0.004   1.584   5.810 -0.2249  0.6961  0.2014
 3219SOL    HW211099   0.064   1.684   5.714  1.3484 -0.1067  0.3242
 3220SOL     OW11100   7.501   2.573   1.064  0.0940 -0.2861  0.1687
 3220SOL    HW111101   7.571   2.602   1.123  1.0375 -2.1836  0.0616
 3220SOL    HW211102   7.546   2.547   0.984 -0.9410  0.1292 -0.5676
 3221SOL     OW11103   0.489   1.024   3.501 -0.0175 -0.0604 -0.2614
 3221SOL    HW111104   0.543   0.989   3.430  0.7031  0.3580  0.0737
 3221SOL    HW211105   0.428   0.953   3.522  0.5438 -0.6160 -0.5007
 3222SOL     OW11106   1.708   2.628   7.920 -0.1812 -0.6556 -0.7097
 3222SOL    HW111107   1.653   2.703   7.942  1.1002 -0.0021  0.4725
 3222SOL    HW211108   1.686   2.607   7.830 -1.2158  0.5764 -0.7723
 3223SOL     OW11109   1.993   7.282  11.739  0.3594 -0.2021  0.3236
 3223SOL    HW111110   1.956   7.291  11.827  0.9313 -1.0136  0.6644
 3223SOL    HW211111   1.968   7.362  11.694 -0.2317  0.0750  1.1222
 3224SOL     OW11112   4.673   4.970   8.143  0.6482  0.7838 -0.2467
 3224SOL    HW111113   4.723   4.894   8.175  2.0307  1.3074 -1.0932
 3224SOL    HW211114   4.583   4.950   8.168  1.1401 -0.5854  0.6034
 3225SOL     OW11115   6.837   3.176   2.580 -0.2959 -0.2949  0.5968
 3225SOL    HW111116   6.900   3.103   2.574  0.2313  0.2542 -1.2136
 3225SOL    HW211117   6.879   3.248   2.533 -0.8163  1.2154  2.3333
 3226SOL     OW11118   5.501   6.659   6.413  0.3940 -0.6611 -0.3221
 3226SOL    HW111119   5.557   6.585   6.388  0.9070 -0.2616 -0.3854
 3226SOL    HW211120   5.475   6.698   6.329  1.1561 -0.0220 -0.2711
 3227SOL     OW11121   0.872   4.117   5.464 -0.4103  0.4491 -0.1292
 3227SOL    HW111122   0.942   4.092   5.404  0.8691 -0.0331  1.4938
 3227SOL    HW211123   0.794   4.122   5.409  0.5625 -0.6517 -1.6976
 3228SOL     OW11124   1.584   7.115   2.818 -0.3907  0.2456  0.9460
 3228SOL    HW111125   1.520   7.172   2.862 -2.9128  0.2853 -2.3751
 3228SOL    HW211126   1.624   7.172   2.752  2.1258 -0.1889  1.9999
 3229SOL     OW11127   2.737   7.895   9.719 -0.0574  0.3946  0.0526
 3229SOL    HW111128   2.830   7.911   9.708 -0.1973  0.6435 -0.8488
 3229SOL    HW211129   2.705   7.877   9.631 -0.8798  0.4011  0.3368
 3230SOL     OW11130   4.621   2.085   0.746  0.0323 -0.2997 -0.2913
 3230SOL    HW111131   4.679   2.055   0.816 -0.4525 -0.7306 -0.0682
 3230SOL    HW211132   4.667   2.160   0.708 -0.2131  0.6672  1.2345
 3231SOL     OW11133   0.748   6.398   9.584  0.0276  0.8649 -0.1490
 3231SOL    HW111134   0.721   6.307   9.600 -0.8149  0.9290 -1.1015
 3231SOL    HW211135   0.843   6.397   9.595  0.0530 -0.1815 -0.3154
 3232SOL     OW11136   4.872   3.483   1.637 -0.3179 -0.3168  0.1226
 3232SOL    HW111137   4.887   3.517   1.549 -2.2105  1.3641  0.3746
 3232SOL    HW211138   4.831   3.556   1.684  1.1934 -0.9610  2.5963
 3233SOL     OW11139   5.945   0.192   4.512  0.7004  0.0151  0.3373
 3233SOL    HW111140   6.012   0.256   4.488  1.6123 -0.5248  1.3177
 3233SOL    HW211141   5.995   0.113   4.536 -0.2983 -0.4782  0.8669
 3234SOL     OW11142   0.086   2.459   2.249 -0.2105  0.0411  0.6053
 3234SOL    HW111143   0.121   2.514   2.179 -0.1537 -0.3521  0.3193
 3234SOL    HW211144  -0.008   2.475   2.247 -0.3954 -0.9712 -0.4697
 3235SOL     OW11145   0.890   3.973   3.195  0.9899  0.3547  0.5240
 3235SOL    HW111146   0.897   3.977   3.100  0.4331 -1.3147  0.3749
 3235SOL    HW211147   0.974   3.936   3.224  1.1703  0.8865  0.7034
 3236SOL     OW11148   5.766   7.922   0.559 -0.1692 -0.1237 -0.2218
 3236SOL    HW111149   5.825   7.863   0.604 -0.3030 -0.7033 -0.7927
 3236SOL    HW211150   5.767   8.002   0.612 -0.8350 -1.0054  1.1742
 3237SOL     OW11151   4.677   0.840   4.980 -0.1823 -0.3091 -0.2582
 3237SOL    HW111152   4.692   0.926   5.018 -0.6413  0.3918 -1.6044
 3237SOL    HW211153   4.681   0.854   4.885 -3.4541 -1.0767 -0.6465
 3238SOL     OW11154   6.586   4.690  10.010  0.6404  0.5299  0.2549
 3238SOL    HW111155   6.584   4.677  10.105  2.5914  2.9159  0.6982
 3238SOL    HW211156   6.556   4.780   9.997  2.2487  0.8983 -1.1982
 3239SOL     OW11157   4.752   5.848   6.108 -0.0590  0.2632  0.3604
 3239SOL    HW111158   4.695   5.771   6.119 -1.1851  1.2041  1.2838
 3239SOL    HW211159   4.815   5.821   6.040 -0.8015 -1.2556  0.2288
 3240SOL     OW11160   2.986   2.106  12.223  0.0779  0.0859  0.8174
 3240SOL    HW111161   2.949   2.168  12.159  2.5119  1.1138  0.3075
 3240SOL    HW211162   2.909   2.063  12.261 -1.6390  2.1269 -0.1084
 3241SOL     OW11163   5.757   3.492   8.715 -0.6246 -0.0847 -0.4523
 3241SOL    HW111164   5.818   3.489   8.789 -1.7374  1.1777  0.5767
 3241SOL    HW211165   5.671   3.478   8.755 -1.2720  0.8730 -1.4520
 3242SOL     OW11166   4.334   0.947   7.969  0.7947  0.4308 -0.1416
 3242SOL    HW111167   4.269   0.967   7.901  0.5114  0.0127 -0.0026
 3242SOL    HW211168   4.314   1.009   8.039 -0.6938 -0.8934  0.6812
 3243SOL     OW11169   6.301   5.184   2.263 -0.1312 -0.1280  0.0161
 3243SOL    HW111170   6.342   5.109   2.222 -1.6992 -0.5331 -0.8718
 3243SOL    HW211171   6.336   5.260   2.216 -0.9024 -0.5135 -1.2278
 3244SOL     OW11172   3.562   7.479  10.830  0.5288  0.0532  0.1684
 3244SOL    HW111173   3.608   7.407  10.873  1.6484  1.5075  1.5540
 3244SOL    HW211174   3.539   7.538  10.902 -0.2349  1.1609 -0.9434
 3245SOL     OW11175   7.398   4.971   3.029  0.0992 -0.2287 -0.2849
 3245SOL    HW111176   7.412   5.062   3.055 -2.0384  0.5845 -1.7128
 3245SOL    HW211177   7.464   4.955   2.961  1.0728 -0.0926  0.5908
 3246SOL     OW11178   6.254   7.578   2.801  0.3182 -0.0459 -0.3072
 3246SOL    HW111179   6.221   7.545   2.717 -1.7899  1.9906 -0.3873
 3246SOL    HW211180   6.201   7.533   2.867  2.9863 -2.8104  0.1897
 3247SOL     OW11181   7.068   6.053   8.344  0.4176  0.1873  0.6103
 3247SOL    HW111182   7.000   5.986   8.349 -0.1847  0.7951  0.6586
 3247SOL    HW211183   7.139   6.019   8.399 -0.1688 -0.0821  1.2152
 3248SOL     OW11184   0.110   6.414   9.771 -0.2665  0.0194 -0.7142
 3248SOL    HW111185   0.017   6.428   9.791  0.3007  0.4380  1.9689
 3248SOL    HW211186   0.130   6.329   9.811  0.9965  0.9716  0.7621
 3249SOL     OW11187   4.999   1.352   2.276 -0.0104  0.0141 -0.0152
 3249SOL    HW111188   5.020   1.371   2.368  0.2360  0.0533 -0.0778
 3249SOL    HW211189   5.081   1.320   2.239  0.0361  0.5200 -0.3582
 3250SOL     OW11190   1.743   0.858   5.355 -0.5371  0.1583 -0.4155
 3250SOL    HW111191   1.773   0.788   5.298  1.3722  0.6226 -0.0360
 3250SOL    HW211192   1.734   0.934   5.297  0.5348  0.4010 -0.2838
 3251SOL     OW11193   6.437   4.317   6.555 -0.4575  0.0995 -0.1985
 3251SOL    HW111194   6.489   4.327   6.475  0.4635 -1.0577  0.2275
 3251SOL    HW211195   6.404   4.227   6.551 -3.1931  1.0358 -0.8734
 3252SOL     OW11196   7.570   6.940   2.208 -0.2139 -0.1722 -0.3577
 3252SOL    HW111197   7.587   6.854   2.170  0.8417  1.1833 -3.2448
 3252SOL    HW211198   7.645   6.956   2.266  0.4859 -0.4980 -1.1619
 3253SOL     OW11199   7.726   1.311   0.326 -0.1542  0.0181 -0.2829
 3253SOL    HW111200   7.799   1.258   0.294 -0.7624 -1.0173 -0.0274
 3253SOL    HW211201   7.764   1.366   0.395  0.1517 -1.4175  0.7344
 3254SOL     OW11202   6.428   7.030   2.329  0.6017 -0.1368  0.4775
 3254SOL    HW111203   6.369   7.010   2.257  0.6904 -1.7973  0.8338
 3254SOL    HW211204   6.501   6.970   2.319  0.4509 -0.6694  2.1245
 3255SOL     OW11205   5.073   2.318   0.579 -0.6188 -0.0760 -0.0632
 3255SOL    HW111206   5.146   2.346   0.524 -0.5834 -0.8036 -0.3948
 3255SOL    HW211207   4.997   2.322   0.522 -0.4485 -1.7017 -0.4704
 3256SOL     OW11208   4.486   1.947   8.847  0.0633 -0.0152 -0.0103
 3256SOL    HW111209   4.397   1.916   8.829  0.8090 -2.5708  0.3112
 3256SOL    HW211210   4.538   1.913   8.774  0.9192  0.8650  0.1652
 3257SOL     OW11211   1.208   3.719  11.716  0.2951  0.2318  0.1708
 3257SOL    HW111212   1.165   3.777  11.652  0.4641 -1.7226 -1.8460
 3257SOL    HW211213   1.290   3.764  11.737  0.0655  1.1238 -0.7142
 3258SOL     OW11214   2.665   2.881   8.212 -0.3397  0.1140  0.0637
 3258SOL    HW111215   2.573   2.867   8.231 -0.2022 -0.6090  0.2240
 3258SOL    HW211216   2.702   2.793   8.206  0.0122  0.3518 -1.6237
 3259SOL     OW11217   5.346   6.994  10.785 -0.4375  0.2888  0.4280
 3259SOL    HW111218   5.383   6.906  10.784  0.4021  0.6261 -1.1406
 3259SOL    HW211219   5.351   7.024  10.694 -2.6365  1.1834  0.5410
 3260SOL     OW11220   5.588   1.449   5.037  0.3661  0.3349 -0.7401
 3260SOL    HW111221   5.524   1.415   5.100  2.4323 -0.2556  1.1610
 3260SOL    HW211222   5.592   1.543   5.055  0.6183  0.2407 -0.2900
 3261SOL     OW11223   5.123   2.538  10.374  0.1080 -0.7402  0.1802
 3261SOL    HW111224   5.211   2.575  10.373  0.5528 -1.7184 -1.3892
 3261SOL    HW211225   5.131   2.456  10.325 -2.2191  0.5874 -2.7640
 3262SOL     OW11226   3.734   3.317   1.967  0.0318 -0.0155  0.0641
 3262SOL    HW111227   3.786   3.276   2.036  0.7068  0.3295 -0.2264
 3262SOL    HW211228   3.708   3.245   1.910 -1.7207 -0.5110  1.4085
 3263SOL     OW11229   5.296   2.954   3.536 -0.0866  0.3005 -0.1505
 3263SOL    HW111230   5.387   2.976   3.515  0.3055 -0.5935  0.5189
 3263SOL    HW211231   5.264   2.906   3.460 -0.0619  0.7878 -0.4679
 3264SOL     OW11232   0.288   4.088   2.346 -0.1691  0.2348 -0.0407
 3264SOL    HW111233   0.373   4.056   2.316 -0.3025  0.0195 -0.1873
 3264SOL    HW211234   0.234   4.009   2.355 -0.4629  0.4079 -0.2947
 3265SOL     OW11235   5.428   0.197   9.592  0.2826 -0.0845  0.1024
 3265SOL    HW111236   5.502   0.241   9.550  0.7772  0.7477  1.7859
 3265SOL    HW211237   5.467   0.121   9.635  0.2211  0.5021  1.2178
 3266SOL     OW11238   1.686   0.882   7.441  0.2558  0.0294 -0.8054
 3266SOL    HW111239   1.692   0.810   7.377  0.9364 -1.0360  0.3957
 3266SOL    HW211240   1.776   0.905   7.460  0.1095 -0.2803  0.3954
 3267SOL     OW11241   5.315   2.305   2.620 -0.3250  0.0882 -0.6126
 3267SOL    HW111242   5.340   2.359   2.545  0.4924  0.3803 -0.1489
 3267SOL    HW211243   5.267   2.231   2.583 -1.9216  1.3676 -1.2340
 3268SOL     OW11244   0.091   3.549   5.294 -0.2852  0.1193  0.4780
 3268SOL    HW111245   0.071   3.479   5.357 -1.6802 -0.0824 -0.1364
 3268SOL    HW211246   0.129   3.503   5.219  0.0692  0.1884  0.6152
 3269SOL     OW11247   1.541   4.884   9.568 -0.6267  0.8064  0.0250
 3269SOL    HW111248   1.572   4.835   9.644 -1.8118 -0.1930 -0.0944
 3269SOL    HW211249   1.579   4.839   9.493 -0.0779  1.3278 -0.0194
 3270SOL     OW11250   7.770   2.916  12.368  0.2233  0.0535 -0.1916
 3270SOL    HW111251   7.755   2.868  12.286 -1.0152  1.0271 -0.5645
 3270SOL    HW211252   7.863   2.938  12.366  0.3808 -0.6329 -0.9496
 3271SOL     OW11253   7.459   2.275   0.248  0.1897 -0.3010 -0.1618
 3271SOL    HW111254   7.411   2.293   0.329  0.0000  1.8151 -0.6846
 3271SOL    HW211255   7.394   2.236   0.189 -0.1986  0.0739  0.0201
 3272SOL     OW11256   0.422   3.085   5.449 -0.3333  0.1784  0.4617
 3272SOL    HW111257   0.395   3.093   5.540 -0.2906  0.0124  0.4893
 3272SOL    HW211258   0.427   2.991   5.433 -1.4100  0.1928 -0.0370
 3273SOL     OW11259   2.083   1.695   2.608 -0.5398  0.3866  0.1716
 3273SOL    HW111260   2.000   1.703   2.563 -0.9738  1.2515  1.0754
 3273SOL    HW211261   2.063   1.646   2.688 -0.1376  0.4016  0.2851
 3274SOL     OW11262   7.876   7.175   3.501 -0.0406 -0.2622  0.4748
 3274SOL    HW111263   7.854   7.115   3.573  1.0766 -0.7793  0.4091
 3274SOL    HW211264   7.913   7.252   3.544 -0.4691 -0.0676  0.5030
 3275SOL     OW11265   5.085   1.481   3.058 -0.0374  0.1530 -0.5948
 3275SOL    HW111266   4.991   1.475   3.077  0.0863 -0.1506 -0.0492
 3275SOL    HW211267   5.112   1.391   3.041  0.9061 -0.3857  3.0364
 3276SOL     OW11268   0.071   6.485   3.678  0.3493  0.5321 -0.2959
 3276SOL    HW111269   0.105   6.453   3.595  1.6013 -2.4972  1.2241
 3276SOL    HW211270  -0.005   6.429   3.696 -0.5459  1.8375  0.1391
 3277SOL     OW11271   3.997   4.865   7.195 -0.4452  0.1079  0.8775
 3277SOL    HW111272   4.030   4.839   7.109 -2.1124  1.4071 -0.2237
 3277SOL    HW211273   4.076   4.880   7.248  0.6297 -0.0634 -0.6271
 3278SOL     OW11274   7.181   3.785  11.090 -0.2479 -0.0287  0.4791
 3278SOL    HW111275   7.149   3.866  11.128  0.2464  0.5388 -0.2709
 3278SOL    HW211276   7.212   3.733  11.164  0.2573  0.8433  0.8944
 3279SOL     OW11277   0.319   2.203   0.495  0.0212  0.0900  0.4203
 3279SOL    HW111278   0.373   2.151   0.554  0.8185  1.5439  1.0216
 3279SOL    HW211279   0.244   2.229   0.549 -1.5531 -2.1951 -0.5004
 3280SOL     OW11280   7.128   0.374   9.815  0.1832 -0.5600  0.5438
 3280SOL    HW111281   7.083   0.457   9.830  1.3110 -0.3082  2.9534
 3280SOL    HW211282   7.182   0.390   9.738 -0.6464  0.4918  0.1502
 3281SOL     OW11283   7.199   5.964   9.918  0.3947  0.2001  0.3830
 3281SOL    HW111284   7.207   5.872   9.894  0.9619  0.8477 -2.2311
 3281SOL    HW211285   7.119   5.968   9.971  1.0430 -1.9360  1.6355
 3282SOL     OW11286   4.640   0.375   7.494  0.0329 -0.9155  0.5283
 3282SOL    HW111287   4.568   0.373   7.431 -0.7880  2.2180  1.1641
 3282SOL    HW211288   4.708   0.320   7.455 -1.3684 -1.1150 -1.8485
 3283SOL     OW11289   5.068   3.988   3.711 -0.2122  0.3089 -0.6564
 3283SOL    HW111290   5.010   3.963   3.639 -3.6275 -1.6443  2.4682
 3283SOL    HW211291   5.028   4.067   3.747 -0.0918 -0.2281  0.6764
 3284SOL     OW11292   6.370   2.031   5.888 -0.1668  0.0866  0.1376
 3284SOL    HW111293   6.404   2.033   5.799  1.2571 -1.8798  0.5478
 3284SOL    HW211294   6.278   2.054   5.880 -0.2113 -0.6072 -1.9291
 3285SOL     OW11295   4.546   6.849   7.827 -0.2410 -0.0052 -0.7662
 3285SOL    HW111296   4.523   6.914   7.761  0.1173  0.6127 -0.2891
 3285SOL    HW211297   4.513   6.766   7.791 -1.7509  0.5982 -0.8431
 3286SOL     OW11298   1.972   7.125   2.878 -0.2261 -0.7468  0.2304
 3286SOL    HW111299   2.062   7.156   2.875  0.0549 -1.5372  0.2519
 3286SOL    HW211300   1.919   7.205   2.885  0.5173 -0.3225  1.1817
 3287SOL     OW11301   3.332   0.577   3.042 -0.3742 -0.0232  0.1081
 3287SOL    HW111302   3.345   0.502   3.100 -1.2025  0.4809  0.9660
 3287SOL    HW211303   3.393   0.643   3.074 -0.1853 -0.0625 -0.1686
 3288SOL     OW11304   4.075   5.058   8.171 -0.5969 -0.1723  0.3537
 3288SOL    HW111305   4.074   5.034   8.263 -0.8295 -1.2840  0.0730
 3288SOL    HW211306   3.986   5.088   8.152 -0.2177  1.3075  0.7886
 3289SOL     OW11307   2.145   6.394   4.823  0.0392 -0.0285 -0.0178
 3289SOL    HW111308   2.183   6.413   4.737  0.4403  0.2343  0.2144
 3289SOL    HW211309   2.051   6.383   4.806  0.1920 -0.5318 -0.5759
 3290SOL     OW11310   0.274   1.552   4.719  0.2979 -0.0609  0.0089
 3290SOL    HW111311   0.279   1.618   4.788  0.5888  0.3064 -0.3558
 3290SOL    HW211312   0.324   1.478   4.753 -1.7417 -0.9281  1.2967
 3291SOL     OW11313   5.171   0.226   1.659  0.0828 -0.5515 -0.1788
 3291SOL    HW111314   5.191   0.299   1.718  1.6084 -0.8899 -0.2423
 3291SOL    HW211315   5.253   0.178   1.652 -0.5010 -1.4138 -1.3473
 3292SOL     OW11316   2.350   2.886   2.571  0.0397 -0.3016 -0.0514
 3292SOL    HW111317   2.276   2.940   2.601 -1.5667 -2.0774 -0.6212
 3292SOL    HW211318   2.320   2.849   2.488  1.2745 -1.6909  0.0819
 3293SOL     OW11319   6.325   1.398   4.196 -0.3937 -0.7254  0.1785
 3293SOL    HW111320   6.357   1.343   4.266 -1.1934 -1.2551  0.1485
 3293SOL    HW211321   6.397   1.402   4.133  0.8036  0.7551  1.5439
 3294SOL     OW11322   4.691   4.825   6.031  0.2845  0.0121  0.2142
 3294SOL    HW111323   4.768   4.776   6.062  1.2887  0.6048 -1.2353
 3294SOL    HW211324   4.728   4.897   5.979 -1.2063  1.4107  1.0014
 3295SOL     OW11325   2.231   5.512   6.784 -0.3514  0.3702 -0.2330
 3295SOL    HW111326   2.296   5.582   6.793 -0.7513  0.7704 -0.4205
 3295SOL    HW211327   2.272   5.449   6.724 -1.3511  2.1272 -2.9698
 3296SOL     OW11328   1.435   0.161   3.924  0.1382 -0.0151 -0.2882
 3296SOL    HW111329   1.391   0.246   3.924 -0.3485 -0.2307 -2.0674
 3296SOL    HW211330   1.398   0.115   3.999 -1.1589  0.5793 -0.5307
 3297SOL     OW11331   1.828   0.526   4.436  0.1157  0.4147 -0.3779
 3297SOL    HW111332   1.826   0.432   4.415  0.0666  0.5008 -0.7638
 3297SOL    HW211333   1.900   0.535   4.497 -0.9909 -0.1687  1.0756
 3298SOL     OW11334   0.725   5.220   9.253 -0.3047  0.2405  0.2649
 3298SOL    HW111335   0.705   5.286   9.187  0.5782 -1.1985 -1.5409
 3298SOL    HW211336   0.796   5.258   9.305 -0.7679  1.2476  0.1791
 3299SOL     OW11337   2.379   4.713   4.291 -0.1121  0.3390 -0.2499
 3299SOL    HW111338   2.409   4.802   4.308  0.6409  0.5527 -2.3972
 3299SOL    HW211339   2.359   4.712   4.197  0.7423 -1.9762 -0.4772
 3300SOL     OW11340   6.377   6.462   2.494  0.2633  0.4439  0.0692
 3300SOL    HW111341   6.436   6.443   2.566  0.7249  1.7281  0.0558
 3300SOL    HW211342   6.296   6.415   2.515  0.3832  0.8252  1.4349
 3301SOL     OW11343   7.160   2.022  12.356 -0.3770 -0.3032  0.0574
 3301SOL    HW111344   7.121   2.049  12.272  0.3164  1.0852  0.1621
 3301SOL    HW211345   7.236   1.970  12.331 -0.8297 -0.8871 -0.1502
 3302SOL     OW11346   5.358   6.960   5.886 -0.1889 -0.0956  0.2103
 3302SOL    HW111347   5.315   6.909   5.816 -0.6244 -2.5283  2.1229
 3302SOL    HW211348   5.435   6.909   5.909  0.3884  1.0841  0.9799
 3303SOL     OW11349   0.838   4.330  10.343 -0.3216  0.1282  0.0907
 3303SOL    HW111350   0.919   4.314  10.393 -0.9918 -0.4211  1.0349
 3303SOL    HW211351   0.855   4.291  10.257 -0.1302 -1.3888  0.7843
 3304SOL     OW11352   1.438   7.775   7.396  0.0982  0.3619 -0.0331
 3304SOL    HW111353   1.381   7.721   7.341 -1.7050  2.2079 -0.1259
 3304SOL    HW211354   1.399   7.769   7.483  0.6424  0.4978  0.2213
 3305SOL     OW11355   7.656   5.577  11.641  0.1844 -0.4723  0.0322
 3305SOL    HW111356   7.611   5.583  11.557  1.0154  0.3169 -0.3736
 3305SOL    HW211357   7.724   5.644  11.637 -1.5047  1.5644  2.4039
 3306SOL     OW11358   2.941   4.443   4.633 -0.3174 -0.2926 -0.6098
 3306SOL    HW111359   2.943   4.533   4.666 -0.7663 -0.4057 -0.2699
 3306SOL    HW211360   3.032   4.413   4.640 -0.3970 -0.3290  0.5985
 3307SOL     OW11361   7.060   5.154   3.195  0.1331  0.2720  0.0871
 3307SOL    HW111362   7.146   5.190   3.177  0.7084 -1.3041 -0.4895
 3307SOL    HW211363   7.067   5.061   3.171 -1.5219 -0.0391  0.6608
 3308SOL     OW11364   7.965   0.747   9.699 -0.5775  0.5507  0.4703
 3308SOL    HW111365   7.951   0.657   9.727 -1.4248  0.2042 -0.9452
 3308SOL    HW211366   8.049   0.772   9.738  0.7503 -1.5701 -0.8358
 3309SOL     OW11367   0.361   4.772   5.247  0.4631 -0.0203  0.1422
 3309SOL    HW111368   0.428   4.723   5.295  0.6037  1.1987  1.2502
 3309SOL    HW211369   0.400   4.787   5.161  1.8825  1.0861  0.9115
 3310SOL     OW11370   7.746   2.599   8.391  0.2428 -0.0578 -0.4122
 3310SOL    HW111371   7.678   2.630   8.450 -0.1215  0.3547 -1.0479
 3310SOL    HW211372   7.715   2.513   8.362 -0.2304  0.3182 -1.0461
 3311SOL     OW11373   5.761   4.259   9.817 -0.0320  0.6291  0.6007
 3311SOL    HW111374   5.755   4.348   9.852 -0.7044  0.4070  1.0664
 3311SOL    HW211375   5.724   4.266   9.729  1.4706  1.1459 -0.0255
 3312SOL     OW11376   6.814   6.858   0.963 -0.0291  0.2616  0.1645
 3312SOL    HW111377   6.753   6.834   0.893  0.9200 -0.8952 -0.2872
 3312SOL    HW211378   6.895   6.811   0.943  0.6377  0.8159  1.4110
 3313SOL     OW11379   6.998   3.850  11.949  0.1444  0.3482  0.2037
 3313SOL    HW111380   7.075   3.881  11.900  0.1533  0.0235  0.0075
 3313SOL    HW211381   6.959   3.783  11.892 -0.0301  0.1974  0.5003
 3314SOL     OW11382   7.308   4.572   6.302 -0.1923 -0.3059  0.1015
 3314SOL    HW111383   7.349   4.533   6.379 -0.6214 -2.1412 -0.5421
 3314SOL    HW211384   7.378   4.621   6.260  0.0005  0.8816  1.7229
 3315SOL     OW11385   2.577   0.466   0.046 -0.0801  0.5311 -0.3183
 3315SOL    HW111386   2.609   0.502   0.129 -0.4510  0.6187 -0.2144
 3315SOL    HW211387   2.657   0.448  -0.004  0.1798 -0.3558  0.4010
 3316SOL     OW11388   5.600   6.059  10.886 -0.0092 -0.5440  0.2541
 3316SOL    HW111389   5.587   6.138  10.835 -1.6963 -0.3807  0.8861
 3316SOL    HW211390   5.512   6.022  10.897  0.4203 -1.1164  2.1505
 3317SOL     OW11391   5.019   1.650   3.695 -0.2480  0.0942  0.3125
 3317SOL    HW111392   4.936   1.649   3.648 -0.3686  0.5624  0.5052
 3317SOL    HW211393   5.019   1.734   3.741  0.3290  0.0972  0.3173
 3318SOL     OW11394   2.584   1.811  12.375  0.0705 -0.3302 -0.1551
 3318SOL    HW111395   2.563   1.766  12.456  2.7274 -0.8164  0.3522
 3318SOL    HW211396   2.555   1.752  12.306 -1.2014 -0.4098  0.4262
 3319SOL     OW11397   5.891   5.266   1.779 -0.0568 -0.2084  0.2658
 3319SOL    HW111398   5.827   5.200   1.755 -0.5538  0.4905 -0.3491
 3319SOL    HW211399   5.879   5.337   1.716  0.7900  0.2690  0.6168
 3320SOL     OW11400   5.295   6.187  10.950 -0.6959 -0.1436 -0.4628
 3320SOL    HW111401   5.252   6.101  10.950 -1.8755  0.4250 -0.1577
 3320SOL    HW211402   5.321   6.200  11.042 -2.5623  0.7863 -0.0290
 3321SOL     OW11403   5.553   1.454   0.586 -0.0338 -0.0477  0.2235
 3321SOL    HW111404   5.461   1.473   0.567  0.0157  1.0106  0.9704
 3321SOL    HW211405   5.551   1.366   0.624 -0.9294  0.4929  1.5174
 3322SOL     OW11406   4.215   7.862  12.353 -0.2904 -0.2074  0.1484
 3322SOL    HW111407   4.144   7.910  12.396  0.7769  0.1306  1.6082
 3322SOL    HW211408   4.294   7.911  12.376  0.5678 -1.3317 -0.3158
 3323SOL     OW11409   2.139   6.126   7.833  0.2491  0.2573  0.2577
 3323SOL    HW111410   2.133   6.080   7.917  0.9714  0.4444  0.4200
 3323SOL    HW211411   2.048   6.143   7.809 -0.0106 -0.7034  0.4970
 3324SOL     OW11412   4.937   2.786  11.909  0.1472 -0.2271  0.3188
 3324SOL    HW111413   4.991   2.865  11.909  0.0753 -0.1315 -1.4734
 3324SOL    HW211414   4.860   2.810  11.961  1.0429  0.1669  1.5283
 3325SOL     OW11415   0.773   5.278   5.752  0.1427 -0.5102  0.0365
 3325SOL    HW111416   0.820   5.267   5.669 -0.5097 -1.2127 -0.2506
 3325SOL    HW211417   0.795   5.199   5.802 -1.2697 -1.1832 -0.3752
 3326SOL     OW11418   0.058   1.001  10.611 -0.2424 -0.2651  0.0215
 3326SOL    HW111419   0.115   1.070  10.647 -0.3967  1.1291 -2.1772
 3326SOL    HW211420   0.105   0.920  10.627  1.6665  0.7045 -0.3615
 3327SOL     OW11421   6.797   5.231   0.685 -0.4616 -0.0781  0.1626
 3327SOL    HW111422   6.763   5.145   0.660 -0.6970  0.1200 -0.1991
 3327SOL    HW211423   6.756   5.250   0.770  0.9020 -1.0826  1.1123
 3328SOL     OW11424   4.613   7.269  12.433 -0.0216  0.0022  0.7284
 3328SOL    HW111425   4.528   7.307  12.411 -0.2613 -1.6850 -1.6578
 3328SOL    HW211426   4.676   7.334  12.403 -0.4542  0.0318 -0.1602
 3329SOL     OW11427   0.437   6.216   5.986 -0.0830 -0.3882  0.0494
 3329SOL    HW111428   0.429   6.253   6.074  4.0888 -1.4343  1.1012
 3329SOL    HW211429   0.490   6.279   5.938  0.8368 -1.5273 -0.4793
 3330SOL     OW11430   3.365   0.075   4.886 -0.2799  0.2102  0.5154
 3330SOL    HW111431   3.440   0.017   4.871  0.1450  0.4526  1.6433
 3330SOL    HW211432   3.321   0.078   4.801  0.0239 -1.2832  0.2676
 3331SOL     OW11433   4.753   0.862   6.238  0.3944  0.3483  0.2587
 3331SOL    HW111434   4.671   0.825   6.271  1.1275 -0.9203  0.7171
 3331SOL    HW211435   4.726   0.922   6.169 -0.9095 -0.2195  0.2496
 3332SOL     OW11436   0.109   3.848   8.237  0.0144  0.2528 -0.1057
 3332SOL    HW111437   0.044   3.801   8.185  0.5417 -0.2937 -0.2738
 3332SOL    HW211438   0.075   3.937   8.243 -1.2157 -0.2333  0.5714
 3333SOL     OW11439   7.688   7.718   6.939 -0.7163  0.1665 -0.2907
 3333SOL    HW111440   7.713   7.631   6.907 -0.0079  1.0727 -2.4079
 3333SOL    HW211441   7.761   7.745   6.994 -1.3626 -0.9131  1.1539
 3334SOL     OW11442   1.117   5.729   3.818 -0.2470  0.3087  0.1770
 3334SOL    HW111443   1.022   5.724   3.803 -0.0239 -0.5481 -1.1363
 3334SOL    HW211444   1.138   5.649   3.866 -0.3105  0.9723  1.3478
 3335SOL     OW11445   5.775   2.068   6.954 -0.4326  0.5797 -0.3430
 3335SOL    HW111446   5.730   2.000   6.905 -0.1916  0.8718 -0.9819
 3335SOL    HW211447   5.777   2.143   6.895  2.7425 -0.0489 -1.1871
 3336SOL     OW11448   2.440   0.653  10.941  0.0719  0.1237 -0.1999
 3336SOL    HW111449   2.497   0.598  10.887  1.2173  1.2315 -0.1802
 3336SOL    HW211450   2.351   0.626  10.918  0.5817 -1.9571  0.0788
 3337SOL     OW11451   1.068   3.310  10.164  0.6401 -0.3324  0.6285
 3337SOL    HW111452   1.057   3.350  10.250  0.2168  0.0664  0.3982
 3337SOL    HW211453   0.997   3.348  10.111  0.6958 -0.8158  0.1951
 3338SOL     OW11454   6.905   6.805  11.644 -0.3368  0.0477  0.2829
 3338SOL    HW111455   6.886   6.712  11.647  1.0029 -0.3104 -0.9957
 3338SOL    HW211456   6.847   6.840  11.577  1.4650 -0.5638 -1.7317
 3339SOL     OW11457   5.136   6.734   2.827  0.1396 -0.2030 -0.5918
 3339SOL    HW111458   5.170   6.772   2.746  2.4251 -2.3281 -0.7810
 3339SOL    HW211459   5.164   6.794   2.896  0.0606  0.5312 -1.1927
 3340SOL     OW11460   2.890   6.694   2.443 -0.0333  0.1930 -0.1037
 3340SOL    HW111461   2.884   6.682   2.349  2.2855 -2.0411 -0.0690
 3340SOL    HW211462   2.946   6.622   2.473  1.0753  2.0695  2.7043
 3341SOL     OW11463   7.532   0.670   5.809 -0.3992 -0.4495 -0.6400
 3341SOL    HW111464   7.541   0.660   5.714 -0.5405 -0.7143 -0.6262
 3341SOL    HW211465   7.594   0.608   5.846 -0.1801 -0.1845 -0.5561
 3342SOL     OW11466   6.022   6.216   2.409  0.1928  0.3177 -0.1868
 3342SOL    HW111467   6.116   6.204   2.400  0.0355  0.1801 -2.0505
 3342SOL    HW211468   5.988   6.209   2.320 -1.7701 -1.0964  0.5972
 3343SOL     OW11469   1.300   2.903   1.442 -0.3472  0.6134 -0.1692
 3343SOL    HW111470   1.260   2.850   1.373 -0.7130  0.8509 -0.1452
 3343SOL    HW211471   1.247   2.983   1.444 -1.1922  0.0487  1.3148
 3344SOL     OW11472   2.410   5.341   5.271  0.0227  0.4450  0.0695
 3344SOL    HW111473   2.464   5.270   5.236  0.6510  0.3430  1.1864
 3344SOL    HW211474   2.353   5.299   5.335  0.0619  0.8678  0.3898
 3345SOL     OW11475   6.563   1.053   0.511  0.2445  0.4078 -0.2675
 3345SOL    HW111476   6.504   1.029   0.582 -0.2081 -1.2951 -1.1751
 3345SOL    HW211477   6.520   1.128   0.469 -0.1722  0.5534  0.4013
 3346SOL     OW11478   0.124   6.588  10.935  0.6280  0.1265  1.1189
 3346SOL    HW111479   0.110   6.530  11.010  1.3263  2.4541  3.1664
 3346SOL    HW211480   0.036   6.621  10.914  0.5281  0.0280  1.3775
 3347SOL     OW11481   6.237   0.173  12.054 -0.3018 -0.3525  0.2114
 3347SOL    HW111482   6.191   0.121  12.120  1.3484  0.2528  1.9058
 3347SOL    HW211483   6.254   0.257  12.096 -1.8638  1.2325 -2.0664
 3348SOL     OW11484   0.816   0.614   4.293 -0.3311  0.5723 -0.4579
 3348SOL    HW111485   0.805   0.644   4.383 -2.4124  1.2487 -0.8945
 3348SOL    HW211486   0.911   0.608   4.282 -0.0321  0.2875  1.8196
 3349SOL     OW11487   0.918   2.332  10.075 -0.4571 -0.2832 -0.4702
 3349SOL    HW111488   0.957   2.275  10.009  2.6591  2.7628 -1.6067
 3349SOL    HW211489   0.966   2.313  10.155  0.5469  0.5750 -0.8370
 3350SOL     OW11490   4.472   7.471   6.597  0.3675 -0.1613  0.1711
 3350SOL    HW111491   4.552   7.430   6.565 -0.5965 -2.2245  0.2508
 3350SOL    HW211492   4.419   7.398   6.630 -1.6219  1.1210 -0.0279
 3351SOL     OW11493   0.012   6.328   0.276  0.2250 -0.2127 -0.2567
 3351SOL    HW111494  -0.053   6.288   0.334  1.6927 -2.0425  0.2198
 3351SOL    HW211495   0.024   6.417   0.311 -2.1981  0.3087 -0.5657
 3352SOL     OW11496   7.036   2.549   8.815  0.0152  0.5717 -0.4189
 3352SOL    HW111497   7.001   2.604   8.745  0.9122 -1.7563 -2.8746
 3352SOL    HW211498   6.998   2.585   8.895 -0.7893  3.6174 -2.0079
 3353SOL     OW11499   1.211   2.157  10.844 -0.9948 -0.1258 -0.3467
 3353SOL    HW111500   1.256   2.102  10.908 -2.1744 -1.4945 -0.6630
 3353SOL    HW211501   1.247   2.130  10.760  0.0878  1.2290 -0.3605
 3354SOL     OW11502   7.591   4.029  12.126 -0.1850  0.4410 -0.1425
 3354SOL    HW111503   7.591   3.981  12.209  1.6303 -0.2973 -0.5364
 3354SOL    HW211504   7.590   4.121  12.151  0.7026  0.2294  0.7157
 3355SOL     OW11505   1.945   6.355   4.441 -0.6240  0.4597 -0.4862
 3355SOL    HW111506   2.017   6.339   4.379 -1.2722  0.5686 -1.2774
 3355SOL    HW211507   1.959   6.445   4.471 -0.5473  0.5516 -0.7967
 3356SOL     OW11508   2.188   3.367   7.108 -0.3733 -0.0383  0.1570
 3356SOL    HW111509   2.253   3.346   7.041 -0.8138 -2.1979  0.3364
 3356SOL    HW211510   2.174   3.461   7.099 -0.2377 -0.1981 -2.6369
 3357SOL     OW11511   4.706   3.957   9.859 -0.0400 -0.1160  0.1344
 3357SOL    HW111512   4.720   4.021   9.929  1.3847 -0.6241  0.3466
 3357SOL    HW211513   4.650   3.891   9.898  0.1958 -0.0524  0.5958
 3358SOL     OW11514   3.213   2.307   9.712 -0.0884  0.2980 -0.2430
 3358SOL    HW111515   3.150   2.346   9.652 -0.0005  2.0265  0.7087
 3358SOL    HW211516   3.166   2.234   9.752 -0.5072 -0.1978 -1.5720
 3359SOL     OW11517   7.375   5.058   0.526  0.0710  0.5236  0.2274
 3359SOL    HW111518   7.363   5.019   0.440 -0.5957  1.2867 -0.0472
 3359SOL    HW211519   7.301   5.118   0.535 -0.0949  0.1549  1.5017
 3360SOL     OW11520   7.148   3.249   5.040 -0.1584 -0.2080 -0.1187
 3360SOL    HW111521   7.110   3.301   5.111  0.7118 -0.1058  0.2922
 3360SOL    HW211522   7.073   3.215   4.992 -0.7537  1.2163 -0.2466
 3361SOL     OW11523   4.047   2.263   7.748 -0.0208 -0.0331  0.4905
 3361SOL    HW111524   4.015   2.184   7.790 -0.2847 -0.8557 -1.1919
 3361SOL    HW211525   4.139   2.270   7.776 -0.1943 -0.5170  1.2036
 3362SOL     OW11526   5.846   7.901   7.797 -0.1215  0.2324 -0.0047
 3362SOL    HW111527   5.786   7.839   7.756  0.8206 -0.2291 -0.7269
 3362SOL    HW211528   5.837   7.885   7.890 -0.8651 -0.0662 -0.1188
 3363SOL     OW11529   4.294   4.133  10.307  0.1495 -0.2350 -0.4210
 3363SOL    HW111530   4.267   4.057  10.359 -0.7422  0.6799  0.4817
 3363SOL    HW211531   4.291   4.102  10.216  1.7541 -1.8711  0.0067
 3364SOL     OW11532   0.186   5.242   8.513  0.2397  0.0964  0.2898
 3364SOL    HW111533   0.109   5.295   8.535  0.1558 -0.2589  0.8773
 3364SOL    HW211534   0.200   5.188   8.590  0.9855  0.0410  0.1201
 3365SOL     OW11535   4.202   4.405   4.444 -0.2709  0.2142 -0.3726
 3365SOL    HW111536   4.124   4.457   4.425 -0.3839  0.0450 -0.3821
 3365SOL    HW211537   4.239   4.445   4.523  1.2090  2.0434 -1.9106
 3366SOL     OW11538   4.143   4.141   6.632  0.0196 -0.2952  0.0990
 3366SOL    HW111539   4.233   4.151   6.600  0.0068  2.5017  0.7190
 3366SOL    HW211540   4.135   4.205   6.702 -2.8300  0.5003 -0.8075
 3367SOL     OW11541   5.966   0.054   8.589 -0.0282 -0.2019 -0.1760
 3367SOL    HW111542   5.877   0.088   8.593 -0.3346 -0.9887 -0.0522
 3367SOL    HW211543   6.013   0.101   8.657 -0.0204  1.1239 -1.0580
 3368SOL     OW11544   1.670   6.091   0.378  0.1690  0.3764  0.6479
 3368SOL    HW111545   1.599   6.155   0.370 -0.5775 -0.1491  2.4928
 3368SOL    HW211546   1.636   6.011   0.340  0.7984  0.8135 -0.9041
 3369SOL     OW11547   3.055   7.173   3.962 -0.2802 -0.0747 -0.8475
 3369SOL    HW111548   3.100   7.140   4.040 -1.6488 -1.4501 -0.5996
 3369SOL    HW211549   3.123   7.221   3.914  1.3633 -1.7835 -0.3405
 3370SOL     OW11550   4.712   3.065   1.365  0.1488  0.2922  0.0307
 3370SOL    HW111551   4.728   3.159   1.378  0.1389  0.1446  1.1852
 3370SOL    HW211552   4.648   3.042   1.432 -0.8793 -0.2693 -1.0993
 3371SOL     OW11553   4.754   0.241   3.218 -0.5094 -0.3528 -0.3654
 3371SOL    HW111554   4.747   0.332   3.247 -0.8627 -0.5019  0.0324
 3371SOL    HW211555   4.726   0.190   3.294  0.7288 -0.8305 -0.2208
 3372SOL     OW11556   1.050   4.979   0.249 -0.4147  0.3786  0.7932
 3372SOL    HW111557   1.060   5.059   0.198  0.6041 -0.2344  0.0047
 3372SOL    HW211558   0.994   4.922   0.196  1.7999 -0.8244 -0.4058
 3373SOL     OW11559   6.074   2.638   7.499  0.0464 -0.0755 -0.1396
 3373SOL    HW111560   6.104   2.722   7.464  0.0066 -0.0378 -0.0835
 3373SOL    HW211561   6.013   2.605   7.433 -0.1228  0.0540 -0.0460
 3374SOL     OW11562   0.325   2.074   9.002  0.2733  0.0302  0.2959
 3374SOL    HW111563   0.247   2.104   8.956  0.4325 -1.6514 -1.1647
 3374SOL    HW211564   0.398   2.117   8.956  0.2973  0.9546  1.1443
 3375SOL     OW11565   5.261   0.435   1.427 -0.3098  0.4072 -0.0769
 3375SOL    HW111566   5.197   0.408   1.362  2.2268 -1.6408 -1.9603
 3375SOL    HW211567   5.268   0.359   1.486 -0.3630  1.0401  0.7613
 3376SOL     OW11568   7.864   1.702  12.322 -0.1540  0.2561 -0.6811
 3376SOL    HW111569   7.901   1.763  12.386 -1.5618 -0.4409  0.8676
 3376SOL    HW211570   7.866   1.750  12.239  0.8028  1.5634  0.0610
 3377SOL     OW11571   7.934   3.691   0.946  0.3228  0.0063 -0.1949
 3377SOL    HW111572   7.966   3.693   1.036  2.2783  0.3557 -0.8647
 3377SOL    HW211573   7.921   3.783   0.923 -2.6788 -0.1321  0.5045
 3378SOL     OW11574   6.692   1.443   5.625 -0.3150 -0.4743 -0.1280
 3378SOL    HW111575   6.676   1.486   5.709 -1.8265 -1.6240  0.2126
 3378SOL    HW211576   6.688   1.350   5.645  1.5452 -0.8050 -1.1009
 3379SOL     OW11577   4.598   4.049   5.555  0.3327 -0.5742  0.0161
 3379SOL    HW111578   4.666   4.114   5.538 -1.6481  1.2973 -1.1791
 3379SOL    HW211579   4.588   4.003   5.471 -1.7890  1.1182 -0.7222
 3380SOL     OW11580   3.164   6.305   1.357  0.4062  0.1395 -0.2194
 3380SOL    HW111581   3.234   6.263   1.305  0.6188  0.3936 -0.1434
 3380SOL    HW211582   3.084   6.286   1.308  0.7244  1.2668 -1.2242
 3381SOL     OW11583   7.608   7.563   1.974  0.3204  0.1423  0.1785
 3381SOL    HW111584   7.615   7.585   1.882  1.5392 -0.1067  0.1957
 3381SOL    HW211585   7.554   7.632   2.011  1.2830  1.2368 -0.4011
 3382SOL     OW11586   4.414   7.571   5.937  0.0972  0.2077  0.0943
 3382SOL    HW111587   4.395   7.509   6.007  1.9862 -0.5789 -0.0325
 3382SOL    HW211588   4.404   7.657   5.977 -0.2112 -0.2135  0.9398
 3383SOL     OW11589   3.860   5.744   3.308  0.0760 -0.1220  0.4738
 3383SOL    HW111590   3.855   5.839   3.316  0.0569 -0.0904  0.0710
 3383SOL    HW211591   3.781   5.712   3.351  0.9296 -0.0422  2.1920
 3384SOL     OW11592   4.564   6.370   2.749 -0.2856 -0.2805 -0.2731
 3384SOL    HW111593   4.595   6.330   2.830 -1.7164 -0.7709  0.0580
 3384SOL    HW211594   4.502   6.306   2.712 -1.8071  1.1194 -0.2841
 3385SOL     OW11595   0.268   1.220   7.122 -0.1577  0.0093  0.0102
 3385SOL    HW111596   0.184   1.266   7.128  0.5643  1.2160  1.5765
 3385SOL    HW211597   0.329   1.275   7.170  1.2716 -1.4663 -0.0266
 3386SOL     OW11598   7.858   0.387   3.858  0.2019  0.6054 -0.2434
 3386SOL    HW111599   7.833   0.474   3.828  0.0119  0.5562 -0.2320
 3386SOL    HW211600   7.937   0.401   3.910  0.2084  0.7623 -0.2949
 3387SOL     OW11601   6.376   7.498   2.255 -0.1979 -0.0546 -0.2295
 3387SOL    HW111602   6.368   7.481   2.161 -3.1159  0.2331 -0.1366
 3387SOL    HW211603   6.297   7.548   2.277  0.4973  0.0639  2.3545
 3388SOL     OW11604   5.850   2.546  11.435 -0.2800 -0.5693 -0.3626
 3388SOL    HW111605   5.808   2.524  11.518  0.1522 -0.9800 -0.2495
 3388SOL    HW211606   5.849   2.465  11.385 -0.6322 -0.2981 -0.8068
 3389SOL     OW11607   4.826   4.992   9.114 -0.1313  0.3319  0.1506
 3389SOL    HW111608   4.814   4.897   9.112  1.3615  0.1295 -0.4395
 3389SOL    HW211609   4.760   5.025   9.052  0.6787 -0.5136 -1.2251
 3390SOL     OW11610   1.525   2.970  10.443  0.0976 -0.1191  0.5525
 3390SOL    HW111611   1.436   2.947  10.470 -0.0140 -1.6729 -0.9362
 3390SOL    HW211612   1.580   2.908  10.491  0.1402 -0.8688 -0.4409
 3391SOL     OW11613   3.113   6.181   7.066 -0.3723 -0.0342  0.5095
 3391SOL    HW111614   3.111   6.275   7.048  1.0420  0.3874  2.3154
 3391SOL    HW211615   3.058   6.170   7.143 -0.7107 -0.7238  0.1739
 3392SOL     OW11616   1.354   6.222   2.306 -0.2550 -0.1557  0.2467
 3392SOL    HW111617   1.348   6.287   2.376  0.3731 -2.1899  2.2978
 3392SOL    HW211618   1.443   6.188   2.311  0.1579  0.3657 -2.2906
 3393SOL     OW11619   0.824   4.197   5.970  0.6934 -0.1290  0.1501
 3393SOL    HW111620   0.877   4.250   5.910  2.2181 -0.4285  1.1835
 3393SOL    HW211621   0.884   4.132   6.004 -0.0667  0.1384  2.1483
 3394SOL     OW11622   4.872   0.521  12.103  0.4873 -0.0973  0.2855
 3394SOL    HW111623   4.935   0.533  12.032  1.9300  0.0819  1.5469
 3394SOL    HW211624   4.854   0.609  12.135 -0.5227 -0.1347 -0.1215
 3395SOL     OW11625   2.164   4.277   1.662  0.1273 -0.2287  0.0557
 3395SOL    HW111626   2.186   4.214   1.594 -1.8798  0.5107 -1.3726
 3395SOL    HW211627   2.068   4.279   1.663  0.1203  1.1732  1.5999
 3396SOL     OW11628   1.985   3.305  12.391 -0.6053  0.4820 -0.0763
 3396SOL    HW111629   2.061   3.362  12.379 -0.6464  1.2572  2.5517
 3396SOL    HW211630   2.016   3.218  12.367  0.3404  1.1450 -1.4031
 3397SOL     OW11631   7.050   4.078   3.782 -0.1220 -0.2719 -0.6375
 3397SOL    HW111632   7.072   4.027   3.860  0.6263 -0.8267 -1.1944
 3397SOL    HW211633   7.125   4.136   3.769 -1.2120  1.4592  0.3314
 3398SOL     OW11634   1.717   1.702   4.831  0.6263 -0.2447  0.2920
 3398SOL    HW111635   1.802   1.659   4.838  0.9846  0.5513  0.9721
 3398SOL    HW211636   1.735   1.784   4.787  0.2243 -0.0123  0.5545
 3399SOL     OW11637   0.220   2.214   5.641  0.6284  0.7579  0.7847
 3399SOL    HW111638   0.135   2.216   5.684 -0.2434  0.8414 -0.8820
 3399SOL    HW211639   0.271   2.150   5.690 -1.5861 -2.0225 -0.3010
 3400SOL     OW11640   1.079   3.742   9.060  0.5585  0.4239  0.1368
 3400SOL    HW111641   1.009   3.801   9.033 -0.7064 -0.5396  1.1976
 3400SOL    HW211642   1.157   3.797   9.066 -0.0712  1.4972 -1.1608
 3401SOL     OW11643   6.167   3.489   1.123 -0.2656 -0.2669 -0.4242
 3401SOL    HW111644   6.231   3.556   1.098 -0.4503 -0.8105 -2.6302
 3401SOL    HW211645   6.102   3.537   1.174  1.0146  0.6334  0.4287
 3402SOL     OW11646   6.473   4.371   5.976 -0.0581  0.1321  0.1743
 3402SOL    HW111647   6.411   4.357   5.905  0.6413 -1.0868 -0.2350
 3402SOL    HW211648   6.431   4.334   6.053 -1.1290  2.1082  0.5964
 3403SOL     OW11649   1.770   1.433   7.418 -0.0018 -0.2924  0.3385
 3403SOL    HW111650   1.754   1.339   7.405  1.1171 -0.7887  2.1801
 3403SOL    HW211651   1.853   1.449   7.373 -0.0918 -0.2291  0.1950
 3404SOL     OW11652   5.997   5.806   0.823  0.1295 -0.0047 -0.5707
 3404SOL    HW111653   5.969   5.893   0.795 -1.1427 -0.1702  0.1204
 3404SOL    HW211654   5.922   5.771   0.871  0.1579 -1.9624 -1.8413
 3405SOL     OW11655   1.196   2.433   6.653 -0.1279  0.1908  0.0331
 3405SOL    HW111656   1.154   2.518   6.642  1.4436  0.8744 -1.0105
 3405SOL    HW211657   1.217   2.428   6.747 -1.2691  0.4256  0.3096
 3406SOL     OW11658   6.806   7.314   7.842 -0.4363 -0.2357 -0.0353
 3406SOL    HW111659   6.775   7.400   7.815  0.1379  0.4016  1.2400
 3406SOL    HW211660   6.731   7.274   7.886 -0.3571  0.0807  0.3867
 3407SOL     OW11661   4.390   3.929   6.363  0.4057 -0.6687 -0.1222
 3407SOL    HW111662   4.410   3.835   6.370  0.4518 -0.5193  3.9247
 3407SOL    HW211663   4.305   3.938   6.407  0.4293  1.2133 -0.4059
 3408SOL     OW11664   2.437   7.644   8.402 -0.2210 -0.0310 -0.1876
 3408SOL    HW111665   2.422   7.675   8.491  1.4955 -0.5095  0.3084
 3408SOL    HW211666   2.532   7.654   8.389 -0.5428  0.7996 -2.2618
 3409SOL     OW11667   1.749   3.729   5.002 -0.0111  0.4106 -0.2871
 3409SOL    HW111668   1.663   3.763   4.978  0.3038  1.6935  0.3126
 3409SOL    HW211669   1.803   3.807   5.014  1.3118 -0.3782 -0.8994
 3410SOL     OW11670   0.646   4.965   0.362 -0.0911  0.7296 -0.3249
 3410SOL    HW111671   0.561   4.993   0.327 -0.4196 -0.6347 -0.6761
 3410SOL    HW211672   0.681   4.906   0.296  0.4083  0.0408  0.5361
 3411SOL     OW11673   5.974   5.785   0.436 -1.1260 -0.4082  0.3603
 3411SOL    HW111674   6.004   5.738   0.514 -2.2187  0.6559  1.4612
 3411SOL    HW211675   5.931   5.717   0.383 -0.5409 -1.1069  0.7600
 3412SOL     OW11676   2.609   3.403  12.066  0.6772 -0.8014  0.2779
 3412SOL    HW111677   2.659   3.355  12.132  2.1571  0.1111 -0.1263
 3412SOL    HW211678   2.672   3.418  11.995 -0.2790  0.0835 -0.4007
 3413SOL     OW11679   7.020   1.939   8.677 -0.6489  0.0196  0.3897
 3413SOL    HW111680   6.944   1.934   8.620 -0.4480 -1.5355  0.2198
 3413SOL    HW211681   6.984   1.939   8.766 -0.8808 -2.7707  0.3961
 3414SOL     OW11682   3.552   1.266   5.568  0.2356  0.4206  0.0174
 3414SOL    HW111683   3.523   1.233   5.653 -0.1266 -0.6491 -0.5045
 3414SOL    HW211684   3.645   1.244   5.564  0.1567  0.0926 -0.0360
 3415SOL     OW11685   1.807   2.875  10.432  0.1875  0.0580 -0.3570
 3415SOL    HW111686   1.899   2.866  10.409  0.6411  0.3281  1.2345
 3415SOL    HW211687   1.793   2.813  10.504 -1.0394 -0.4437 -0.9940
 3416SOL     OW11688   0.125   7.505   8.482 -0.3034 -0.3134 -0.6986
 3416SOL    HW111689   0.156   7.415   8.495  0.6343  0.0114 -0.6371
 3416SOL    HW211690   0.203   7.559   8.490 -0.9048  0.5431 -0.4448
 3417SOL     OW11691   4.792   0.073   2.289  0.1896 -0.1576 -0.3082
 3417SOL    HW111692   4.744  -0.009   2.302  0.3788 -0.1744  0.3124
 3417SOL    HW211693   4.867   0.049   2.235  0.5234 -0.4878  0.3064
 3418SOL     OW11694   4.307   2.229   7.385  1.6269  0.1877 -0.0112
 3418SOL    HW111695   4.247   2.270   7.446 -0.9816 -1.6251 -1.1492
 3418SOL    HW211696   4.308   2.287   7.309 -1.7000 -1.3438 -1.4394
 3419SOL     OW11697   4.646   7.443   6.226 -0.0557 -0.1151  0.1194
 3419SOL    HW111698   4.638   7.503   6.299 -0.2678 -0.1743  0.1474
 3419SOL    HW211699   4.555   7.416   6.207 -0.0882  0.4784 -0.6471
 3420SOL     OW11700   3.335   0.998   8.804  0.2157 -0.5343 -0.2024
 3420SOL    HW111701   3.370   0.930   8.862  0.1931 -0.1726  0.2357
 3420SOL    HW211702   3.359   0.969   8.716  1.3437 -0.4543  0.0644
 3421SOL     OW11703   1.860   3.581   2.112  0.5850  0.0321 -0.4848
 3421SOL    HW111704   1.855   3.662   2.161 -2.0435 -0.2743 -0.1251
 3421SOL    HW211705   1.910   3.603   2.033  1.5501  1.4747  0.5001
 3422SOL     OW11706   0.248   7.505  11.028  0.6151 -0.1864  0.0061
 3422SOL    HW111707   0.248   7.437  11.096  0.2716  0.4242  0.6171
 3422SOL    HW211708   0.271   7.585  11.074 -1.3856  0.5759 -0.2628
 3423SOL     OW11709   7.491   4.031   8.146 -0.3809  0.6822 -0.5733
 3423SOL    HW111710   7.424   3.973   8.184  0.8860  0.1582  0.9529
 3423SOL    HW211711   7.460   4.119   8.165 -0.2703  0.4360  0.8581
 3424SOL     OW11712   0.647   1.635   7.978  0.3398  0.1398  0.2819
 3424SOL    HW111713   0.703   1.710   7.999 -0.1647  0.1054  1.8451
 3424SOL    HW211714   0.695   1.559   8.011  0.2105 -0.0876 -0.0430
 3425SOL     OW11715   1.350   1.877  11.743  0.0324  0.2844  1.0921
 3425SOL    HW111716   1.400   1.851  11.666 -1.0853 -1.4225  0.8812
 3425SOL    HW211717   1.377   1.967  11.760  0.6382  0.5655 -1.0319
 3426SOL     OW11718   7.251   7.696   3.795 -0.0240 -0.6532  0.2804
 3426SOL    HW111719   7.182   7.648   3.749 -2.0413 -0.2268  2.6421
 3426SOL    HW211720   7.315   7.717   3.727 -1.9960 -1.4404 -1.9673
 3427SOL     OW11721   5.212   0.780   8.853 -0.0078 -0.1102  0.0125
 3427SOL    HW111722   5.242   0.691   8.834  1.7560  0.3046  0.6726
 3427SOL    HW211723   5.199   0.781   8.948 -0.0568  0.3143  0.0029
 3428SOL     OW11724   0.100   5.634   8.455 -0.4949 -0.3049 -0.6048
 3428SOL    HW111725   0.005   5.642   8.465 -0.3253  1.2309 -0.0570
 3428SOL    HW211726   0.130   5.598   8.538 -0.6289 -1.2478 -0.9511
 3429SOL     OW11727   0.462   2.406   9.833  0.0538 -0.5332 -0.1347
 3429SOL    HW111728   0.460   2.501   9.844 -0.9467 -0.5316 -0.2399
 3429SOL    HW211729   0.542   2.390   9.782  1.6100 -0.0106  1.9957
 3430SOL     OW11730   4.500   3.177   0.187 -0.3903 -0.1771  0.2839
 3430SOL    HW111731   4.486   3.118   0.113 -1.1994 -0.2501  0.4818
 3430SOL    HW211732   4.450   3.137   0.259 -0.1417  0.2349  0.6940
 3431SOL     OW11733   7.035   1.759  10.272  0.3197  0.1913 -0.4917
 3431SOL    HW111734   7.084   1.841  10.286 -2.6461  2.3820 -1.9052
 3431SOL    HW211735   6.966   1.761  10.338 -0.0860 -0.9640 -0.8633
 3432SOL     OW11736   4.830   7.499   9.110 -0.2230 -0.7345  0.0068
 3432SOL    HW111737   4.921   7.479   9.088 -0.2360 -0.8027  0.0148
 3432SOL    HW211738   4.836   7.574   9.170 -0.3133  1.7938 -2.8980
 3433SOL     OW11739   5.962   4.163   7.039 -0.2182 -0.3904 -0.1251
 3433SOL    HW111740   5.896   4.169   7.108 -1.8210 -0.8961 -1.5474
 3433SOL    HW211741   5.930   4.094   6.981  1.1150 -0.0396 -1.3279
 3434SOL     OW11742   4.339   5.415   0.273  0.6488 -0.5938 -0.4627
 3434SOL    HW111743   4.265   5.472   0.294  0.2442 -0.7104 -1.5479
 3434SOL    HW211744   4.349   5.360   0.351  1.0955  0.9927  0.6283
 3435SOL     OW11745   3.194   7.512   3.860  0.3620  0.3660  0.4521
 3435SOL    HW111746   3.247   7.457   3.803 -0.1258  0.4166 -0.0596
 3435SOL    HW211747   3.233   7.600   3.852  1.2791  0.0787  1.4413
 3436SOL     OW11748   3.866   1.104   5.092  0.3981 -0.1242 -0.5318
 3436SOL    HW111749   3.880   1.071   5.004 -0.0473  0.7036 -0.9313
 3436SOL    HW211750   3.934   1.170   5.103 -2.0841  2.9776 -1.9869
 3437SOL     OW11751   2.210   6.469  11.446  0.4895  0.3876  0.0478
 3437SOL    HW111752   2.172   6.556  11.430  0.0435  0.3031  0.5991
 3437SOL    HW211753   2.208   6.426  11.361 -0.6258  0.4095  0.0466
 3438SOL     OW11754   5.561   3.092   8.621  0.1981 -0.3469 -0.5127
 3438SOL    HW111755   5.645   3.138   8.613  0.7836 -1.2692  0.1653
 3438SOL    HW211756   5.569   3.018   8.561  0.3747 -1.1445  0.4679
 3439SOL     OW11757   6.108   6.357   8.427  0.6540  0.2098 -0.5722
 3439SOL    HW111758   6.025   6.321   8.460  0.5698  0.3759 -0.5977
 3439SOL    HW211759   6.084   6.445   8.397  0.7829  0.1475 -0.8496
 3440SOL     OW11760   2.539   3.194   8.694  0.6324  0.1324  0.1133
 3440SOL    HW111761   2.627   3.178   8.729  1.1821 -1.0995 -1.6601
 3440SOL    HW211762   2.550   3.267   8.634  0.3489  0.2484  0.2019
 3441SOL     OW11763   7.910   7.525   1.468  0.2727  0.0098  0.0262
 3441SOL    HW111764   7.996   7.485   1.474  1.0694  1.6186 -0.2081
 3441SOL    HW211765   7.925   7.617   1.488 -1.4497  0.2565  0.3184
 3442SOL     OW11766   0.784   3.329   6.653  0.3977  0.0117 -0.0591
 3442SOL    HW111767   0.748   3.409   6.615 -0.7005  0.2470  1.3972
 3442SOL    HW211768   0.728   3.259   6.621 -1.3079  0.3462  1.9801
 3443SOL     OW11769   6.124   2.946  11.330  0.1221 -0.5919  0.1412
 3443SOL    HW111770   6.096   2.895  11.406 -1.8374 -0.7395 -0.6261
 3443SOL    HW211771   6.055   3.012  11.319  1.9908  1.5555  0.4034
 3444SOL     OW11772   5.376   6.303   8.640  0.5016 -0.5443  0.1111
 3444SOL    HW111773   5.333   6.218   8.627 -1.4271  0.3995 -0.1893
 3444SOL    HW211774   5.462   6.293   8.600  0.1466 -2.2224 -0.3178
 3445SOL     OW11775   1.799   5.080  10.797  0.2565  0.1193  0.1716
 3445SOL    HW111776   1.874   5.044  10.844 -0.0417  0.6548  1.0745
 3445SOL    HW211777   1.723   5.052  10.848 -0.1374 -0.0739 -0.5093
 3446SOL     OW11778   5.525   6.807   8.588  0.1862 -0.2229 -0.8610
 3446SOL    HW111779   5.476   6.880   8.551  0.6110 -0.1346 -1.2588
 3446SOL    HW211780   5.530   6.826   8.682 -0.4810 -0.2053 -0.8202
 3447SOL     OW11781   0.812   0.317  10.738 -0.3264 -0.0732  0.1109
 3447SOL    HW111782   0.725   0.323  10.697 -1.1138  2.6925  1.8543
 3447SOL    HW211783   0.860   0.392  10.703  0.0398  0.5492  1.8604
 3448SOL     OW11784   1.649   5.809   8.543  0.1589 -0.1262 -0.0731
 3448SOL    HW111785   1.562   5.848   8.552  0.3051 -0.1446  2.0203
 3448SOL    HW211786   1.640   5.721   8.579  0.4152 -1.1849 -2.4610
 3449SOL     OW11787   7.518   6.496   5.448  0.0489 -0.1541 -0.0792
 3449SOL    HW111788   7.501   6.458   5.534 -0.6655 -2.5967 -1.1898
 3449SOL    HW211789   7.447   6.558   5.433 -2.9892 -3.4501 -0.8672
 3450SOL     OW11790   1.302   0.820   3.126  0.1111  0.2196  0.3320
 3450SOL    HW111791   1.215   0.780   3.123  0.3841 -0.3177 -0.9483
 3450SOL    HW211792   1.358   0.754   3.166 -0.1655  0.8356  1.8434
 3451SOL     OW11793   1.078   6.660  12.227  0.4872  0.2600 -0.4695
 3451SOL    HW111794   1.037   6.739  12.190  0.2495  0.3220 -0.0826
 3451SOL    HW211795   1.150   6.694  12.280 -0.0909  0.2822  0.3306
 3452SOL     OW11796   7.066   0.164   0.460  0.1749  0.2835  0.4355
 3452SOL    HW111797   7.017   0.244   0.479  1.3543  0.7472  1.6583
 3452SOL    HW211798   7.059   0.153   0.365 -1.1937  1.0294  0.4269
 3453SOL     OW11799   1.673   3.625   7.516 -0.0997  0.4859  0.1680
 3453SOL    HW111800   1.630   3.557   7.568 -0.6149 -0.0871 -0.9654
 3453SOL    HW211801   1.603   3.661   7.462  0.0320  2.3721  1.1634
 3454SOL     OW11802   0.905   5.694   3.228 -0.3776  0.5029 -0.3483
 3454SOL    HW111803   0.852   5.685   3.307 -1.6387 -0.6779 -1.2910
 3454SOL    HW211804   0.973   5.756   3.253 -1.1973  0.7692  1.4205
 3455SOL     OW11805   3.265   6.294   5.636  0.0015  0.3002  0.0807
 3455SOL    HW111806   3.303   6.373   5.675 -1.7100  0.6530  1.1627
 3455SOL    HW211807   3.340   6.238   5.618  1.1334  1.4970  0.8343
 3456SOL     OW11808   0.374   5.546   7.367  0.1445 -0.3630  0.0695
 3456SOL    HW111809   0.367   5.451   7.380 -0.5709 -0.2182  0.8220
 3456SOL    HW211810   0.384   5.582   7.455 -0.8787  0.3580 -0.0891
 3457SOL     OW11811   4.283   7.961   7.077  0.2097 -0.3217 -0.5298
 3457SOL    HW111812   4.361   7.909   7.057 -0.9825 -3.0124  1.1755
 3457SOL    HW211813   4.314   8.052   7.077  3.2857 -1.2462 -0.2164
 3458SOL     OW11814   2.767   0.067   8.786  0.2427  0.0270  0.2541
 3458SOL    HW111815   2.767   0.129   8.713 -0.6690  0.5707  0.6981
 3458SOL    HW211816   2.782  -0.018   8.745  0.3976  0.4011 -0.4929
 3459SOL     OW11817   3.330   2.302   9.116  0.2632  0.0660  0.1567
 3459SOL    HW111818   3.348   2.239   9.186 -0.0971  1.9912  2.0654
 3459SOL    HW211819   3.236   2.294   9.101  0.2759 -0.0745  0.1441
 3460SOL     OW11820   1.502   3.814   4.926 -0.7549 -0.0002 -0.2737
 3460SOL    HW111821   1.534   3.749   4.864  0.1405  0.3559 -0.1891
 3460SOL    HW211822   1.407   3.816   4.912 -0.8046 -1.3526 -0.2464
 3461SOL     OW11823   6.261   6.415   7.193 -0.3244  0.1246  0.1855
 3461SOL    HW111824   6.309   6.436   7.113 -1.3633 -0.7377 -0.6804
 3461SOL    HW211825   6.248   6.321   7.190  0.6725 -0.1251  1.9873
 3462SOL     OW11826   2.429   3.220   5.844 -0.8131  0.3896  0.0908
 3462SOL    HW111827   2.454   3.174   5.924  0.4882 -0.1058 -0.5594
 3462SOL    HW211828   2.359   3.167   5.806  0.2545 -0.7714 -0.3320
 3463SOL     OW11829   1.186   2.250   5.083  0.3834 -0.8404 -0.1150
 3463SOL    HW111830   1.118   2.276   5.145  1.0713 -1.3496  0.8929
 3463SOL    HW211831   1.139   2.222   5.005 -0.4607  0.9307 -0.2820
 3464SOL     OW11832   0.032   7.172   9.941  0.0996  0.1384 -0.2005
 3464SOL    HW111833   0.026   7.077   9.935  1.4251  0.1391 -2.8791
 3464SOL    HW211834  -0.046   7.198   9.991 -1.4378 -2.1854 -1.2345
 3465SOL     OW11835   3.504   4.758  11.481  0.0740 -0.0836  0.0096
 3465SOL    HW111836   3.536   4.695  11.416 -0.2842 -0.3244  0.0635
 3465SOL    HW211837   3.440   4.811  11.433  1.1007  0.9075 -0.3090
 3466SOL     OW11838   0.117   7.294  11.947 -0.3224 -0.3133  0.1844
 3466SOL    HW111839   0.125   7.201  11.968  0.6043 -0.6393 -1.4028
 3466SOL    HW211840   0.041   7.299  11.890  0.3639 -0.3302 -0.7628
 3467SOL     OW11841   0.851   7.367   6.199  0.3085  0.1857  0.9628
 3467SOL    HW111842   0.855   7.289   6.255  1.4159 -0.7787 -0.3889
 3467SOL    HW211843   0.837   7.332   6.111  0.3004  1.5605  0.4010
 3468SOL     OW11844   3.665   4.785   6.669  0.0434  0.1182 -0.1822
 3468SOL    HW111845   3.570   4.779   6.671  0.0320 -0.0394 -0.9029
 3468SOL    HW211846   3.689   4.819   6.755 -0.9555  4.0591 -1.2366
 3469SOL     OW11847   2.272   1.018   1.352  0.2122  0.7919 -0.4456
 3469SOL    HW111848   2.359   1.054   1.335  1.3578  0.1030  3.2184
 3469SOL    HW211849   2.217   1.095   1.367  0.8536  1.1842 -0.0550
 3470SOL     OW11850   2.676   1.593   5.048  0.1874 -0.5747 -0.0212
 3470SOL    HW111851   2.614   1.601   5.120  0.8218  1.9234  0.3363
 3470SOL    HW211852   2.630   1.628   4.971  1.2894  2.0174  0.4033
 3471SOL     OW11853   6.433   1.536   3.123 -0.1389 -0.7594  0.1662
 3471SOL    HW111854   6.501   1.516   3.059 -1.8560 -1.3399 -1.5627
 3471SOL    HW211855   6.351   1.536   3.073 -1.2371  2.1415  1.7065
 3472SOL     OW11856   5.026   5.130   2.047 -0.1761 -0.2444 -0.3225
 3472SOL    HW111857   5.037   5.037   2.027 -0.1224 -0.0860 -1.0472
 3472SOL    HW211858   5.033   5.174   1.963 -1.2670  0.3246 -0.1312
 3473SOL     OW11859   2.270   2.026   5.386 -0.1314 -0.0659  0.3496
 3473SOL    HW111860   2.345   2.046   5.330  0.0882  2.1929  1.3291
 3473SOL    HW211861   2.307   2.020   5.475 -1.0443  1.0421  0.8410
 3474SOL     OW11862   6.685   6.109   7.366 -0.7241 -0.9005 -0.1389
 3474SOL    HW111863   6.726   6.117   7.452  0.4993 -3.2849 -0.4400
 3474SOL    HW211864   6.591   6.117   7.383 -0.4243  0.1050  1.1782
 3475SOL     OW11865   4.394   2.445  12.311  0.0907 -0.2526  0.3235
 3475SOL    HW111866   4.360   2.359  12.336 -0.2317 -0.1322  0.3024
 3475SOL    HW211867   4.332   2.508  12.349 -1.2037 -0.0916 -1.8989
 3476SOL     OW11868   4.567   6.758   7.005  0.7242  0.5828  0.1237
 3476SOL    HW111869   4.596   6.707   7.081  1.5007  1.0130  0.1331
 3476SOL    HW211870   4.542   6.843   7.042  0.2530  0.4998  0.0019
 3477SOL     OW11871   7.737   6.589   4.578 -0.3537 -0.0891 -0.1113
 3477SOL    HW111872   7.788   6.592   4.659 -2.8622 -0.8433  1.6035
 3477SOL    HW211873   7.671   6.658   4.588  0.1037  0.7179 -2.1629
 3478SOL     OW11874   2.974   5.607   8.224 -0.0917 -0.4153  0.0725
 3478SOL    HW111875   3.032   5.649   8.288  0.9139 -1.4967 -0.1006
 3478SOL    HW211876   3.030   5.544   8.179 -1.6670 -2.3863  0.7344
 3479SOL     OW11877   2.496   5.277   9.184 -0.1441 -0.0511  0.6485
 3479SOL    HW111878   2.404   5.257   9.198 -1.0358  2.3792 -1.0193
 3479SOL    HW211879   2.513   5.251   9.093  0.4667  0.5961  0.5681
 3480SOL     OW11880   1.405   0.281   9.598  0.0721 -0.4830 -0.6697
 3480SOL    HW111881   1.372   0.210   9.542  0.0884  0.2091 -1.5749
 3480SOL    HW211882   1.402   0.359   9.542 -2.3810  0.7953  1.0351
 3481SOL     OW11883   0.478   7.540   1.776  0.0066  0.8971  0.2457
 3481SOL    HW111884   0.510   7.576   1.859 -0.7425  0.0431  0.9207
 3481SOL    HW211885   0.556   7.534   1.721  0.4902  1.6108  0.8242
 3482SOL     OW11886   0.626   2.164   0.756  0.0882 -0.1058 -0.1917
 3482SOL    HW111887   0.576   2.211   0.822  0.7730 -1.7427  1.5858
 3482SOL    HW211888   0.572   2.088   0.734  1.2436 -1.3427  1.0007
 3483SOL     OW11889   2.968   5.715   6.743 -0.6754  0.0921  0.0309
 3483SOL    HW111890   2.970   5.803   6.781  2.4867 -0.5686  1.7120
 3483SOL    HW211891   2.914   5.664   6.804 -1.4410  0.5456 -0.2513
 3484SOL     OW11892   5.216   4.532   7.969 -0.8599  0.3917  0.0665
 3484SOL    HW111893   5.302   4.529   8.009 -0.6820  0.8325 -0.2712
 3484SOL    HW211894   5.169   4.458   8.007 -0.8594  1.0763  1.4395
 3485SOL     OW11895   6.389   2.750  11.148  0.6608 -0.1205 -0.5287
 3485SOL    HW111896   6.362   2.717  11.234  1.2104  1.5716  0.3396
 3485SOL    HW211897   6.308   2.762  11.100  0.2233  0.3240  0.3005
 3486SOL     OW11898   5.195   1.218  11.151  0.4042  0.3378  0.6069
 3486SOL    HW111899   5.184   1.273  11.229  0.5317  0.1889  0.7321
 3486SOL    HW211900   5.118   1.236  11.097  0.2010  0.2720  0.8737
 3487SOL     OW11901   0.412   0.574   0.006  0.2767  0.1194 -0.1983
 3487SOL    HW111902   0.424   0.587  -0.088  1.0488  0.3920 -0.0737
 3487SOL    HW211903   0.363   0.651   0.035  1.2799  0.7682 -0.1515
 3488SOL     OW11904   2.613   1.904   7.691  0.4892  0.4565  0.4361
 3488SOL    HW111905   2.579   1.988   7.661  1.2503  0.6014 -0.0637
 3488SOL    HW211906   2.623   1.914   7.785  0.5392  0.9166  0.3831
 3489SOL     OW11907   0.281   4.271   8.193 -0.2876  0.4323  0.1402
 3489SOL    HW111908   0.319   4.215   8.261  1.0365  1.5459  0.3641
 3489SOL    HW211909   0.193   4.291   8.225 -0.6554 -1.1750  0.2326
 3490SOL     OW11910   1.055   0.454   6.274 -0.0118  0.2118 -0.4008
 3490SOL    HW111911   0.962   0.443   6.253  0.0931 -0.2766 -0.6247
 3490SOL    HW211912   1.055   0.494   6.361 -0.4437 -2.2250  0.8181
 3491SOL     OW11913   6.127   7.095   0.010 -0.1813 -0.1343  0.3640
 3491SOL    HW111914   6.102   7.147  -0.066  2.2118  0.4673 -0.1047
 3491SOL    HW211915   6.095   7.144   0.085 -0.9321  0.2374 -0.1898
 3492SOL     OW11916   6.724   0.857   9.832 -0.3836 -0.2706 -0.0151
 3492SOL    HW111917   6.721   0.803   9.911 -1.6061 -0.8805 -0.4476
 3492SOL    HW211918   6.650   0.917   9.842  1.0193  1.4525  0.5122
 3493SOL     OW11919   0.023   4.952   7.047 -0.2385  0.4461 -0.0498
 3493SOL    HW111920   0.028   4.954   7.143  1.9323  1.6079 -0.1083
 3493SOL    HW211921   0.113   4.969   7.019 -0.7183 -0.4736 -2.3168
 3494SOL     OW11922   6.993   2.408   3.640  0.3747  0.4622  0.5471
 3494SOL    HW111923   6.921   2.420   3.701 -1.4660 -0.5867 -1.3219
 3494SOL    HW211924   7.023   2.319   3.656  0.9515  0.7148  0.9447
 3495SOL     OW11925   1.420   4.430   9.333 -0.4347  0.3277  0.0155
 3495SOL    HW111926   1.506   4.388   9.340 -0.6055  0.1319  1.1365
 3495SOL    HW211927   1.424   4.478   9.251 -1.1969 -4.1274 -3.0052
 3496SOL     OW11928   2.809   5.117   3.131 -0.2638  0.5537  0.2099
 3496SOL    HW111929   2.856   5.157   3.204 -1.5856  2.9314 -0.1447
 3496SOL    HW211930   2.871   5.116   3.059  0.2400  0.5944  0.6392
 3497SOL     OW11931   6.491   0.586   6.128 -0.3182 -0.7029  0.3987
 3497SOL    HW111932   6.509   0.573   6.221 -0.0477  0.4036  0.5163
 3497SOL    HW211933   6.565   0.639   6.097 -1.9104  1.5773  0.2657
 3498SOL     OW11934   5.320   6.938   8.418 -0.8876  0.2515  0.2830
 3498SOL    HW111935   5.342   6.895   8.335  2.9966  2.0636  0.1382
 3498SOL    HW211936   5.226   6.950   8.415 -1.2353 -2.0673 -2.6811
 3499SOL     OW11937   6.349   0.963  10.047  0.0106 -0.8733 -0.0341
 3499SOL    HW111938   6.285   1.032  10.065  0.4483 -0.2442 -0.8561
 3499SOL    HW211939   6.405   0.998   9.978  2.1648 -0.8180  1.6331
 3500SOL     OW11940   1.065   7.670  10.570  0.0800 -0.5609 -0.3837
 3500SOL    HW111941   0.979   7.630  10.584 -0.0123 -0.5815 -0.9955
 3500SOL    HW211942   1.068   7.689  10.476 -0.3467  1.9568  0.0361
 3501SOL     OW11943   5.675   7.678   4.040  0.1411  0.0148  1.2444
 3501SOL    HW111944   5.748   7.702   4.097  0.0953  0.4747  1.1126
 3501SOL    HW211945   5.606   7.741   4.062 -0.2889 -0.5379  1.5066
 3502SOL     OW11946   2.402   6.916   6.812  0.0861  0.3262 -0.5229
 3502SOL    HW111947   2.406   6.821   6.811 -2.8478  0.0672  1.1822
 3502SOL    HW211948   2.326   6.938   6.757  0.4306  1.6784 -0.5155
 3503SOL     OW11949   3.256   7.799   2.531 -0.5491  0.1519  0.1702
 3503SOL    HW111950   3.180   7.839   2.488 -0.8436 -0.4374  0.1329
 3503SOL    HW211951   3.218   7.734   2.591 -0.0712 -0.2937 -0.0061
 3504SOL     OW11952   2.062   2.732   3.328  0.6593 -0.1308 -0.0311
 3504SOL    HW111953   2.139   2.789   3.320  0.0860  0.5818 -0.7475
 3504SOL    HW211954   2.053   2.692   3.242 -0.0160  0.1267 -0.0861
 3505SOL     OW11955   3.041   5.659   9.736 -0.0623 -0.5562  0.2305
 3505SOL    HW111956   2.947   5.644   9.722  0.1066 -0.3235 -1.4573
 3505SOL    HW211957   3.081   5.637   9.652  1.2247  0.7133  0.4674
 3506SOL     OW11958   1.388   6.573   4.732 -0.1014  0.9733 -0.3869
 3506SOL    HW111959   1.396   6.496   4.676  0.1188 -0.1667  1.1737
 3506SOL    HW211960   1.465   6.627   4.709  1.3376 -0.6136  0.4851
 3507SOL     OW11961   2.912   0.221   5.190 -0.4761 -0.0761  0.1542
 3507SOL    HW111962   2.936   0.310   5.165  0.2527 -0.3298 -0.0805
 3507SOL    HW211963   2.882   0.228   5.280 -0.2674  0.3818  0.1880
 3508SOL     OW11964   5.594   6.604   7.972  0.9492  0.7691 -1.1117
 3508SOL    HW111965   5.651   6.665   8.020  0.1934  0.7774 -0.2124
 3508SOL    HW211966   5.643   6.584   7.892  3.3500 -1.0673  0.6672
 3509SOL     OW11967   2.673   4.038   2.845 -0.1953  0.0115 -0.5824
 3509SOL    HW111968   2.692   4.125   2.810  1.1286  0.0128  0.0602
 3509SOL    HW211969   2.726   3.979   2.791 -0.0838 -0.2507 -0.1885
 3510SOL     OW11970   5.945   4.448   4.272  0.6862  0.2468 -0.1637
 3510SOL    HW111971   6.041   4.451   4.277  0.6563  1.8626 -0.0961
 3510SOL    HW211972   5.926   4.386   4.202  1.7921  0.1920 -0.4237
 3511SOL     OW11973   3.034   0.719  10.611  0.1286 -0.5368 -0.1165
 3511SOL    HW111974   3.009   0.741  10.522  1.0227 -1.5449 -0.6380
 3511SOL    HW211975   3.057   0.626  10.608 -0.3866 -0.7430  1.2940
 3512SOL     OW11976   0.590   5.513   6.402 -0.5714  0.2649  0.6123
 3512SOL    HW111977   0.573   5.608   6.398 -0.2594  0.2886 -0.6240
 3512SOL    HW211978   0.680   5.506   6.432 -0.7755  0.3296  1.2649
 3513SOL     OW11979   1.779   4.433   4.930 -0.8072 -0.5430 -0.0433
 3513SOL    HW111980   1.811   4.404   4.844 -1.4856 -1.2043 -0.0809
 3513SOL    HW211981   1.823   4.375   4.992 -1.3525 -0.9700 -0.0461
 3514SOL     OW11982   3.493   6.192   5.740  0.3396 -0.0755 -0.3629
 3514SOL    HW111983   3.551   6.262   5.709 -0.3505 -0.1552 -1.9084
 3514SOL    HW211984   3.547   6.114   5.739  1.1037  0.3702  1.3268
 3515SOL     OW11985   6.552   3.807  11.994 -0.1872  0.3234 -0.6700
 3515SOL    HW111986   6.516   3.825  11.907  0.0581  0.5347 -0.7308
 3515SOL    HW211987   6.539   3.713  12.006 -2.0783  0.6202 -0.0776
 3516SOL     OW11988   4.097   3.294  12.451 -0.0749  0.6583  0.3012
 3516SOL    HW111989   4.058   3.255  12.530  0.1513  0.2296  0.2062
 3516SOL    HW211990   4.125   3.218  12.399 -1.8098  0.8484 -1.0153
 3517SOL     OW11991   3.814   1.249   9.869 -0.3807  0.0210 -0.1018
 3517SOL    HW111992   3.740   1.234   9.811 -1.4914  1.5202  0.8575
 3517SOL    HW211993   3.810   1.342   9.890  1.2745 -0.0396  0.6684
 3518SOL     OW11994   4.254   4.158   2.316 -0.5757  0.0837 -0.2438
 3518SOL    HW111995   4.297   4.138   2.233 -0.1452  0.3233 -0.0797
 3518SOL    HW211996   4.324   4.192   2.372 -0.4738 -1.7413  0.8151
 3519SOL     OW11997   2.923   1.254  11.410 -0.5312  0.7083  0.1524
 3519SOL    HW111998   3.018   1.243  11.414 -0.5061  0.4187 -0.9025
 3519SOL    HW211999   2.893   1.182  11.354 -1.3910  0.7157  0.5862
 3520SOL     OW12000   6.666   6.836   7.526 -0.5715  0.0520 -0.1764
 3520SOL    HW112001   6.683   6.828   7.432 -0.4818 -0.0514 -0.1510
 3520SOL    HW212002   6.708   6.760   7.565 -3.9954 -2.2140 -0.4622
 3521SOL     OW12003   7.731   6.351   0.953  0.0767 -0.2270  0.0989
 3521SOL    HW112004   7.673   6.293   1.002 -0.4002  0.8304  0.8303
 3521SOL    HW212005   7.701   6.345   0.863 -2.2256  1.4313  0.6693
 3522SOL     OW12006   6.306   3.001   5.557 -0.4645  0.4357  0.2387
 3522SOL    HW112007   6.309   3.092   5.585 -2.4182  0.8344 -0.6634
 3522SOL    HW212008   6.370   2.996   5.486  0.2026  0.8959  0.7919
 3523SOL     OW12009   0.517   4.589   3.889  0.3569 -0.0052  0.5895
 3523SOL    HW112010   0.559   4.656   3.943  1.2897  0.4816 -0.7090
 3523SOL    HW212011   0.527   4.508   3.940  2.1342  0.2574  0.7176
 3524SOL     OW12012   1.182   7.006   1.400 -0.3907  0.0997  0.2034
 3524SOL    HW112013   1.131   6.953   1.338 -2.1383  0.6978  1.0571
 3524SOL    HW212014   1.210   7.082   1.348  0.3699 -0.6472 -0.4971
 3525SOL     OW12015   6.259   6.972   8.877  0.0731 -0.2222  0.3705
 3525SOL    HW112016   6.169   6.941   8.881  0.2007 -0.7230 -0.4275
 3525SOL    HW212017   6.255   7.063   8.904 -0.6978 -0.2005  0.1944
 3526SOL     OW12018   5.565   6.829   5.961  0.0863  0.5673 -0.0825
 3526SOL    HW112019   5.649   6.875   5.967 -0.1579  1.1327 -0.8691
 3526SOL    HW212020   5.588   6.736   5.967  0.7612  0.7173 -0.2053
 3527SOL     OW12021   7.129   4.975   7.586  0.4137  0.2367  0.6449
 3527SOL    HW112022   7.157   5.041   7.649  0.8149  0.6967 -0.0040
 3527SOL    HW212023   7.207   4.924   7.568  1.3667  2.4177 -2.2633
 3528SOL     OW12024   7.411   7.864   4.651  0.4893  0.1869  0.5840
 3528SOL    HW112025   7.379   7.939   4.601  0.9952  0.9281  1.3499
 3528SOL    HW212026   7.491   7.836   4.605  0.4915  0.3408  0.4955
 3529SOL     OW12027   0.671   4.163   5.311 -0.0571  0.2323 -0.1030
 3529SOL    HW112028   0.687   4.194   5.222 -0.9639 -1.3006 -0.8471
 3529SOL    HW212029   0.585   4.198   5.333  0.0227  0.3364  0.0418
 3530SOL     OW12030   7.806   7.789  12.337 -0.0095 -0.1574  0.5428
 3530SOL    HW112031   7.855   7.709  12.356 -0.2096  0.0728  2.2384
 3530SOL    HW212032   7.726   7.758  12.293  0.3793 -0.7867  0.2643
 3531SOL     OW12033   1.880   0.978   1.687  0.4500 -0.3142 -0.4023
 3531SOL    HW112034   1.949   1.029   1.730 -0.7633  2.3186 -1.3519
 3531SOL    HW212035   1.919   0.949   1.605  1.2815 -1.2958  0.3228
 3532SOL     OW12036   4.918   2.713  10.667  0.2468  0.3648  0.5225
 3532SOL    HW112037   4.998   2.750  10.630 -0.1748  0.8517  0.0806
 3532SOL    HW212038   4.944   2.682  10.754  1.1151 -0.2660  0.0536
 3533SOL     OW12039   7.665   3.624   9.541  0.1157 -0.6208 -0.0127
 3533SOL    HW112040   7.717   3.667   9.473  1.4407 -2.5845 -0.3212
 3533SOL    HW212041   7.612   3.559   9.494  0.8995 -1.8719  0.7684
 3534SOL     OW12042   1.250   0.139  12.287 -0.1359  0.1340  0.2381
 3534SOL    HW112043   1.303   0.183  12.221 -0.4740 -0.0664 -0.1736
 3534SOL    HW212044   1.161   0.174  12.273 -0.0638  0.6772  1.1029
 3535SOL     OW12045   6.315   0.853   2.874 -0.2506  0.3094 -0.1687
 3535SOL    HW112046   6.330   0.888   2.962  0.4046 -0.1910 -0.0835
 3535SOL    HW212047   6.250   0.913   2.837 -3.0801 -1.2787  1.7924
 3536SOL     OW12048   7.108   3.847   6.992  0.4355 -0.0608 -0.4785
 3536SOL    HW112049   7.143   3.784   7.055 -0.7622  1.0282  1.3683
 3536SOL    HW212050   7.054   3.794   6.933  0.3012 -0.9242  0.3789
 3537SOL     OW12051   6.832   4.263   4.459  0.4651  0.0683 -0.0145
 3537SOL    HW112052   6.928   4.260   4.450  0.6829 -0.7293  2.1658
 3537SOL    HW212053   6.808   4.349   4.423  1.8269 -0.1726 -1.6512
 3538SOL     OW12054   2.377   6.431   5.489  0.1554  0.1005  0.3159
 3538SOL    HW112055   2.325   6.426   5.569 -0.2275 -1.3206  0.0222
 3538SOL    HW212056   2.349   6.355   5.438  0.0655  1.2203 -1.3800
 3539SOL     OW12057   0.728   7.029   4.315  0.5762  0.2262  0.0494
 3539SOL    HW112058   0.750   6.944   4.354  0.7371 -0.1485 -0.8228
 3539SOL    HW212059   0.786   7.091   4.358  0.7384 -0.1684  0.4164
 3540SOL     OW12060   7.530   1.751   5.049  0.2019  0.0420  0.5521
 3540SOL    HW112061   7.619   1.719   5.058  1.1565  2.3553  0.0416
 3540SOL    HW212062   7.499   1.712   4.967  1.7232  1.2244 -0.6507
 3541SOL     OW12063   4.210   7.509   2.843 -0.3624 -0.3492  0.2735
 3541SOL    HW112064   4.265   7.438   2.874 -1.3417 -0.5653  1.5962
 3541SOL    HW212065   4.140   7.516   2.908 -2.6791 -0.9999 -1.9884
 3542SOL     OW12066   3.475   7.229   9.460  0.3306  0.0066  0.0095
 3542SOL    HW112067   3.465   7.261   9.370  0.6113  0.2406  0.0566
 3542SOL    HW212068   3.393   7.185   9.479  0.7268 -1.1181 -0.7858
 3543SOL     OW12069   2.762   4.600   7.993  0.2677 -0.1084  0.2149
 3543SOL    HW112070   2.783   4.517   7.949  2.2466 -0.0207  0.8917
 3543SOL    HW212071   2.734   4.574   8.081 -3.0095 -0.2372 -0.7252
 3544SOL     OW12072   0.972   5.946   0.674  0.5565  0.5088  0.0041
 3544SOL    HW112073   0.985   5.873   0.613  1.6771  1.1262 -0.5213
 3544SOL    HW212074   0.932   5.906   0.751  0.5383 -0.5473 -0.5361
 3545SOL     OW12075   3.291   2.402   4.388  0.1110  0.3782 -0.0583
 3545SOL    HW112076   3.335   2.486   4.402 -1.7685  1.0427  2.6731
 3545SOL    HW212077   3.265   2.373   4.475  0.1822 -2.8288 -0.9617
 3546SOL     OW12078   4.252   2.801   2.915  0.7401 -0.4129 -0.2111
 3546SOL    HW112079   4.225   2.713   2.889 -0.3385  0.0530 -0.7375
 3546SOL    HW212080   4.348   2.801   2.905  0.7972 -1.6261  0.1736
 3547SOL     OW12081   1.944   3.765   9.292 -0.2018  0.0920 -0.1446
 3547SOL    HW112082   1.924   3.821   9.367  0.8297 -1.5036  1.4143
 3547SOL    HW212083   2.021   3.806   9.252 -0.2132  0.4770  0.2159
 3548SOL     OW12084   0.200   6.450   1.974  0.5260  0.0648  0.2307
 3548SOL    HW112085   0.232   6.538   1.953  0.6240  0.3243  1.3881
 3548SOL    HW212086   0.134   6.432   1.907 -1.3626  2.0897  1.4052
 3549SOL     OW12087   3.241   6.825  11.484  0.1223  0.3360  0.3620
 3549SOL    HW112088   3.229   6.850  11.392  0.1917  0.4283  0.3780
 3549SOL    HW212089   3.333   6.801  11.490 -0.4798 -2.4790 -0.2712
 3550SOL     OW12090   5.315   0.818   8.587  0.0873  0.7721  0.1094
 3550SOL    HW112091   5.291   0.855   8.672  0.7677  0.4154  0.4606
 3550SOL    HW212092   5.310   0.892   8.527 -2.5036  0.6298  0.0120
 3551SOL     OW12093   6.473   1.573   1.334  0.9625 -0.1412  0.0975
 3551SOL    HW112094   6.450   1.622   1.256  0.8298  0.2589  0.3831
 3551SOL    HW212095   6.568   1.561   1.328  0.9331 -0.2300 -0.1881
 3552SOL     OW12096   0.064   2.016   7.692  0.0456  0.0821  0.4696
 3552SOL    HW112097   0.089   1.964   7.768 -1.1028 -0.5745  0.4142
 3552SOL    HW212098  -0.028   2.036   7.706  0.5527  2.5438  0.7246
 3553SOL     OW12099   6.081   0.121  11.321 -0.2150  0.7525 -0.4162
 3553SOL    HW112100   6.111   0.055  11.259  1.5969  0.0028  1.1534
 3553SOL    HW212101   5.985   0.113  11.320 -0.0795 -2.6945  0.4736
 3554SOL     OW12102   2.494   4.945   1.262  0.1855 -0.0538 -0.4744
 3554SOL    HW112103   2.486   5.022   1.207  2.0001  0.6842  0.2234
 3554SOL    HW212104   2.405   4.929   1.294 -0.4472  0.9304 -1.6821
 3555SOL     OW12105   3.243   0.485   7.099  0.1705 -0.3083 -0.0530
 3555SOL    HW112106   3.170   0.483   7.161  0.4808 -0.0179  0.3249
 3555SOL    HW212107   3.214   0.431   7.026 -0.9260  0.7872 -0.4671
 3556SOL     OW12108   3.756   0.212   6.154 -0.2450 -0.2619 -0.4849
 3556SOL    HW112109   3.767   0.117   6.166 -1.8925 -0.4197  0.0805
 3556SOL    HW212110   3.719   0.220   6.066 -0.4797 -0.1834 -0.3797
 3557SOL     OW12111   6.221   3.189   3.499  0.5783 -0.1979 -0.0139
 3557SOL    HW112112   6.159   3.261   3.504 -0.3500 -1.0541  1.3675
 3557SOL    HW212113   6.195   3.140   3.421 -1.6836 -1.5568  1.4944
 3558SOL     OW12114   7.028   3.741   7.856  0.1646  0.5625  0.5310
 3558SOL    HW112115   6.979   3.794   7.793  1.6170 -0.1060 -1.2639
 3558SOL    HW212116   6.986   3.655   7.854  0.0755  0.6038  0.6365
 3559SOL     OW12117   5.116   6.005   6.000 -0.0992  0.3396  0.3426
 3559SOL    HW112118   5.075   5.918   6.000 -1.9588  1.1812  0.1635
 3559SOL    HW212119   5.117   6.031   6.092  0.8424 -0.0108  0.4473
 3560SOL     OW12120   5.263   1.589   1.842  0.3875 -0.0713  0.2224
 3560SOL    HW112121   5.211   1.644   1.900 -0.1295 -1.2370  0.8914
 3560SOL    HW212122   5.203   1.520   1.813  1.1295 -0.5354 -0.2508
 3561SOL     OW12123   2.250   4.677   4.557 -0.2469 -0.7491  0.1015
 3561SOL    HW112124   2.316   4.684   4.626  0.6737 -0.7917 -0.7573
 3561SOL    HW212125   2.298   4.693   4.476 -1.3520 -0.4840 -0.5239
 3562SOL     OW12126   1.754   2.411   0.634 -0.1815  0.1187  0.5295
 3562SOL    HW112127   1.789   2.432   0.547 -0.5429  0.3021  0.4258
 3562SOL    HW212128   1.761   2.492   0.684  0.7222 -0.1868  0.9126
 3563SOL     OW12129   1.170   6.950  12.247 -0.1848 -0.1029 -0.3112
 3563SOL    HW112130   1.078   6.958  12.222 -0.2714 -0.1648 -0.0092
 3563SOL    HW212131   1.217   6.949  12.164 -0.5447 -1.2649 -0.5154
 3564SOL     OW12132   2.797   4.640   4.915  0.4187 -0.1424 -0.1568
 3564SOL    HW112133   2.760   4.613   4.999  1.6829  0.5391  0.6383
 3564SOL    HW212134   2.736   4.605   4.850 -0.9789 -0.0488  1.0588
 3565SOL     OW12135   1.329   5.592   7.687 -0.1188  0.5580  0.1503
 3565SOL    HW112136   1.403   5.647   7.661 -0.1331  0.1941 -0.6893
 3565SOL    HW212137   1.356   5.554   7.771  0.0450  1.5395  0.5520
 3566SOL     OW12138   1.654   2.344   0.329 -0.1456 -0.4266 -0.2526
 3566SOL    HW112139   1.696   2.417   0.374  0.9068  1.4936 -3.9617
 3566SOL    HW212140   1.725   2.282   0.312  0.0409  0.0687 -1.3922
 3567SOL     OW12141   7.691   0.345   5.021  0.2774 -0.2472  0.4141
 3567SOL    HW112142   7.757   0.325   4.954  1.1189  0.4593  1.0051
 3567SOL    HW212143   7.614   0.373   4.971  0.5660 -0.6655 -0.2769
 3568SOL     OW12144   7.349   2.525   3.465  0.1246  0.5546 -0.2033
 3568SOL    HW112145   7.336   2.459   3.533 -3.1570  0.6038 -0.5836
 3568SOL    HW212146   7.357   2.475   3.384  0.0901  0.5650 -0.2134
 3569SOL     OW12147   7.560   1.494   4.403  0.1935  0.0943 -0.5002
 3569SOL    HW112148   7.512   1.520   4.482  1.1493 -1.9152  0.8359
 3569SOL    HW212149   7.649   1.476   4.434  0.5593 -0.8741 -2.0185
 3570SOL     OW12150   4.778   3.223   9.137 -0.5294 -0.4695  0.1125
 3570SOL    HW112151   4.792   3.308   9.178  1.0682 -0.4415 -0.4195
 3570SOL    HW212152   4.857   3.173   9.157 -1.3418 -1.7533  0.2162
 3571SOL     OW12153   1.010   5.904  10.583 -0.6650 -0.0375 -0.2388
 3571SOL    HW112154   1.089   5.862  10.550 -0.5464 -0.9643  1.1345
 3571SOL    HW212155   1.000   5.983  10.530  1.8908  0.7811  0.3781
 3572SOL     OW12156   7.903   7.724   7.370  0.1959  0.0319  0.2322
 3572SOL    HW112157   7.898   7.819   7.360  1.1926  0.0742  0.0172
 3572SOL    HW212158   7.957   7.695   7.296  1.6041 -0.4642  1.4269
 3573SOL     OW12159   2.413   5.233   6.049  0.1306  0.3975 -0.3060
 3573SOL    HW112160   2.495   5.194   6.081  1.0633  1.5253 -1.2419
 3573SOL    HW212161   2.361   5.157   6.019 -0.5235 -0.6472  3.0977
 3574SOL     OW12162   2.378   5.112  11.025  0.8839  0.3930  0.3070
 3574SOL    HW112163   2.290   5.111  11.063  1.3857 -1.0311  1.5220
 3574SOL    HW212164   2.371   5.171  10.949 -1.3310 -0.3984 -0.1631
 3575SOL     OW12165   1.497   4.443   0.546 -0.1641  0.1693 -1.0407
 3575SOL    HW112166   1.573   4.447   0.487 -0.9362  0.9536 -2.0169
 3575SOL    HW212167   1.443   4.518   0.521 -0.5884  0.4500  0.6039
 3576SOL     OW12168   0.206   3.201   3.174  0.5539  0.2011 -0.4957
 3576SOL    HW112169   0.293   3.227   3.143  0.6900  0.4572  0.0946
 3576SOL    HW212170   0.211   3.207   3.270  0.2701 -0.9728 -0.3841
 3577SOL     OW12171   6.443   0.895   9.698 -0.0609  0.3907  0.0524
 3577SOL    HW112172   6.348   0.902   9.692  0.0630  1.7416 -0.5788
 3577SOL    HW212173   6.467   0.950   9.773  0.2299 -0.0426  0.2878
 3578SOL     OW12174   0.671   1.018  11.953  0.0513  0.3573  0.5447
 3578SOL    HW112175   0.767   1.018  11.948  0.0366 -0.1754  0.2289
 3578SOL    HW212176   0.651   0.975  12.036  0.1343  3.0213  2.0496
 3579SOL     OW12177   5.196   5.572   1.165 -0.1812  0.0558  0.8322
 3579SOL    HW112178   5.187   5.480   1.141  1.3062  0.5061 -1.8869
 3579SOL    HW212179   5.281   5.578   1.208  0.6136  0.3752 -0.6983
 3580SOL     OW12180   0.499   3.904   9.978  0.5543 -0.1203  0.1993
 3580SOL    HW112181   0.446   3.953  10.041  0.4958 -1.9525  1.6620
 3580SOL    HW212182   0.527   3.969   9.914 -0.5716  1.5467  1.3290
 3581SOL     OW12183   6.892   5.659   6.337 -0.2376  0.0330  0.5919
 3581SOL    HW112184   6.945   5.729   6.376 -0.5224  1.7674 -1.9167
 3581SOL    HW212185   6.899   5.673   6.243 -1.8481 -2.2283  0.0540
 3582SOL     OW12186   1.995   1.388  11.700 -0.2733 -0.3913 -0.1129
 3582SOL    HW112187   2.054   1.339  11.642  1.0624  2.2402 -1.1633
 3582SOL    HW212188   1.933   1.430  11.640 -0.7134  0.0549  0.6457
 3583SOL     OW12189   0.857   5.024   5.860  0.4034 -0.3335 -0.0319
 3583SOL    HW112190   0.858   4.929   5.856  2.0311 -0.3481  0.1368
 3583SOL    HW212191   0.949   5.049   5.868 -0.1347  1.1588  2.2991
 3584SOL     OW12192   3.555   6.833   0.431 -0.0407  0.0993 -0.4091
 3584SOL    HW112193   3.577   6.919   0.466 -0.9008 -0.1440  0.7829
 3584SOL    HW212194   3.460   6.835   0.419  0.0491 -0.3708 -1.2596
 3585SOL     OW12195   2.203   2.466   0.851  0.0953 -0.2382  0.1199
 3585SOL    HW112196   2.211   2.516   0.769 -0.3598  1.2409  0.9367
 3585SOL    HW212197   2.183   2.377   0.823 -1.2396  0.4746 -1.3859
 3586SOL     OW12198   1.075   5.769   0.489  0.1586 -0.6115 -0.5505
 3586SOL    HW112199   1.153   5.825   0.482 -0.9120  1.0933  0.5018
 3586SOL    HW212200   1.028   5.782   0.407 -0.0329 -0.0052 -0.3537
 3587SOL     OW12201   0.796   0.909   6.490 -0.0060  0.3135 -0.7533
 3587SOL    HW112202   0.866   0.949   6.541 -0.9898  0.5010  0.4933
 3587SOL    HW212203   0.750   0.852   6.552 -0.5204 -0.3743 -1.7256
 3588SOL     OW12204   4.946   6.383   4.577 -0.0965 -0.3179  0.1700
 3588SOL    HW112205   5.030   6.424   4.598 -1.0431  1.4185  0.7540
 3588SOL    HW212206   4.949   6.372   4.482 -0.6538  3.3321 -0.4260
 3589SOL     OW12207   0.642   0.325  11.383  0.0584 -0.9991 -0.4888
 3589SOL    HW112208   0.598   0.297  11.463 -0.6506  1.8359  0.2342
 3589SOL    HW212209   0.586   0.294  11.312 -2.0486  0.6791  0.3447
 3590SOL     OW12210   5.362   2.362   9.165 -0.3223  0.4504  0.2765
 3590SOL    HW112211   5.394   2.443   9.205 -1.3363  0.8465  0.3120
 3590SOL    HW212212   5.384   2.370   9.072 -0.5657  0.8301  0.2550
 3591SOL     OW12213   7.289   2.446  11.874  0.3079  0.1065 -0.0115
 3591SOL    HW112214   7.362   2.497  11.837  0.9662 -1.0142 -0.2889
 3591SOL    HW212215   7.231   2.430  11.800 -0.1499  0.8533  0.1759
 3592SOL     OW12216   1.946   3.042   5.541  0.2782 -0.2718 -0.4019
 3592SOL    HW112217   1.872   3.086   5.498  0.8106 -0.0374 -1.0950
 3592SOL    HW212218   1.979   2.980   5.475  0.6469 -0.4378 -0.0667
 3593SOL     OW12219   1.618   7.106  11.622  0.1862  0.0482 -0.1321
 3593SOL    HW112220   1.563   7.028  11.630  0.0082  0.1331 -0.4826
 3593SOL    HW212221   1.659   7.098  11.537  0.6141  0.0565  0.0727
 3594SOL     OW12222   3.465   6.791   1.026 -0.1600 -0.0466 -0.0630
 3594SOL    HW112223   3.383   6.744   1.010  0.5512 -1.1140 -0.7184
 3594SOL    HW212224   3.515   6.780   0.945 -0.0774  2.1533 -0.3765
 3595SOL     OW12225   5.735   0.853   9.337  0.3742 -0.1213 -0.4997
 3595SOL    HW112226   5.691   0.796   9.399  1.2145  0.1974  0.4018
 3595SOL    HW212227   5.795   0.796   9.289  1.0869 -0.0281  0.2780
 3596SOL     OW12228   6.720   4.796   5.836  0.1255  0.3446  0.5731
 3596SOL    HW112229   6.772   4.726   5.876 -0.9512 -0.8513 -0.0369
 3596SOL    HW212230   6.632   4.783   5.870 -0.4051  0.4590 -0.6995
 3597SOL     OW12231   6.392   5.191   8.827  0.2524 -0.4090  0.4326
 3597SOL    HW112232   6.471   5.137   8.822 -0.4562 -1.5106  0.7662
 3597SOL    HW212233   6.403   5.243   8.906  0.3999 -0.9742  0.7893
 3598SOL     OW12234   1.426   5.520   2.528 -0.2836  0.5914  0.0650
 3598SOL    HW112235   1.485   5.594   2.512 -0.5725  0.5770 -1.2343
 3598SOL    HW212236   1.470   5.468   2.595  2.0111 -0.2622 -1.9310
 3599SOL     OW12237   7.906   6.293   3.517  0.2096 -0.0057  0.0168
 3599SOL    HW112238   7.978   6.234   3.494  1.1033  0.5122  1.4168
 3599SOL    HW212239   7.906   6.358   3.447  1.2017  0.0678  0.0700
 3600SOL     OW12240   3.556   5.214   7.403  0.1060 -0.1623 -0.0844
 3600SOL    HW112241   3.555   5.201   7.498 -1.6891 -0.5130 -0.1164
 3600SOL    HW212242   3.503   5.143   7.368  1.8801 -0.8631 -1.5065
 3601SOL     OW12243   6.973   5.477   0.467 -0.0476 -0.0406  0.0408
 3601SOL    HW112244   6.902   5.489   0.404  1.0365 -2.2823 -1.7324
 3601SOL    HW212245   7.040   5.541   0.440 -0.9712  1.5004  1.2138
 3602SOL     OW12246   0.663   0.106   3.629  0.0877  0.3109 -0.0387
 3602SOL    HW112247   0.627   0.191   3.655  2.2965  0.7621  1.8642
 3602SOL    HW212248   0.614   0.042   3.680 -2.0549  0.2603 -1.9743
 3603SOL     OW12249   1.711   6.861   0.654  0.4003 -0.0429  0.5278
 3603SOL    HW112250   1.772   6.849   0.581  0.5104  0.2197  0.5759
 3603SOL    HW212251   1.692   6.955   0.654 -0.4021 -0.1986  0.1941
 3604SOL     OW12252   0.507   2.821   3.210 -0.0186 -0.2024  0.3153
 3604SOL    HW112253   0.422   2.845   3.247  0.0843 -1.3642  1.3549
 3604SOL    HW212254   0.556   2.903   3.209 -1.0676  0.4482 -0.1068
 3605SOL     OW12255   7.899   2.348   2.847  0.1435  0.3551 -0.2837
 3605SOL    HW112256   7.934   2.330   2.934  1.1361  1.6843 -0.3756
 3605SOL    HW212257   7.973   2.336   2.788 -0.3452  0.1534 -0.8661
 3606SOL     OW12258   1.626   6.770   1.884  0.4731  0.0183  0.4225
 3606SOL    HW112259   1.580   6.699   1.928 -0.0776 -0.7373 -1.3073
 3606SOL    HW212260   1.676   6.813   1.954 -1.3255 -0.3240  1.9989
 3607SOL     OW12261   6.775   3.087  10.811  0.4161 -0.3876  0.2704
 3607SOL    HW112262   6.870   3.091  10.796  0.5449 -0.1919  1.0448
 3607SOL    HW212263   6.744   3.176  10.792  0.8016  0.2671  2.4080
 3608SOL     OW12264   5.926   7.427   6.635 -0.0663  0.7459  0.6730
 3608SOL    HW112265   5.861   7.434   6.705 -1.2493  0.8571 -0.4015
 3608SOL    HW212266   6.001   7.386   6.677 -0.6921  0.9177  2.0386
 3609SOL     OW12267   1.451   6.131   3.203  0.4111 -0.7997 -0.0660
 3609SOL    HW112268   1.400   6.057   3.236  0.7597 -0.5169  1.1608
 3609SOL    HW212269   1.540   6.114   3.233  0.4543  0.2244  0.4307
 3610SOL     OW12270   3.316   7.349   0.184 -0.2464  0.1478 -0.5824
 3610SOL    HW112271   3.410   7.359   0.168 -0.3384  0.6595 -0.8255
 3610SOL    HW212272   3.280   7.319   0.101 -0.0626 -1.7520 -0.0234
 3611SOL     OW12273   1.631   6.144   9.502  0.3212  0.3985  0.3203
 3611SOL    HW112274   1.640   6.233   9.536  1.4533  0.0544  0.9758
 3611SOL    HW212275   1.549   6.112   9.539  0.8725  0.4982  1.6832
 3612SOL     OW12276   2.783   1.828   3.335  0.0542  0.0952 -0.1083
 3612SOL    HW112277   2.761   1.754   3.392 -2.0817  0.1738 -0.7418
 3612SOL    HW212278   2.747   1.804   3.250 -0.2625  1.6529 -0.4393
 3613SOL     OW12279   0.041   3.690   0.693  0.0188 -0.1513 -0.4027
 3613SOL    HW112280   0.028   3.676   0.787 -1.1561 -0.0817 -0.5413
 3613SOL    HW212281   0.086   3.612   0.663  0.2738 -0.2362  0.1960
 3614SOL     OW12282   0.451   3.113   1.965 -0.1384 -0.2032 -0.2971
 3614SOL    HW112283   0.380   3.173   1.939 -0.2350  0.1481  0.7305
 3614SOL    HW212284   0.498   3.095   1.884 -0.8119  0.3464 -0.8228
 3615SOL     OW12285   5.929   5.418   8.004  0.5851  0.4785 -1.0162
 3615SOL    HW112286   5.858   5.463   7.958  1.1713  0.9763 -1.4497
 3615SOL    HW212287   5.886   5.344   8.048 -0.0801  0.3318 -1.8842
 3616SOL     OW12288   2.672   7.930   4.858  0.0284 -0.4837  0.0791
 3616SOL    HW112289   2.590   7.963   4.895  1.7124  1.3831  2.4827
 3616SOL    HW212290   2.736   7.999   4.876  2.5514 -2.6757  0.1372
 3617SOL     OW12291   6.071   2.034   2.609  0.2033 -0.2334  0.0983
 3617SOL    HW112292   5.988   2.061   2.648  0.6537  0.0877  0.8789
 3617SOL    HW212293   6.115   2.117   2.589  0.2232 -0.4024 -0.5574
 3618SOL     OW12294   0.170   6.101   9.442  0.0532 -0.2153  0.3778
 3618SOL    HW112295   0.146   6.188   9.476 -1.1318 -1.2650  2.4609
 3618SOL    HW212296   0.258   6.086   9.476  1.7266  1.4589 -2.8174
 3619SOL     OW12297   2.884   1.318   2.888  0.0335 -0.0695  0.0183
 3619SOL    HW112298   2.924   1.307   2.801  0.1920  0.9672 -0.0608
 3619SOL    HW212299   2.938   1.385   2.930  0.8695 -1.6333  1.5099
 3620SOL     OW12300   3.732   7.306   9.801 -0.0082 -0.2336  0.3020
 3620SOL    HW112301   3.790   7.230   9.807  0.8519  0.3821  0.0161
 3620SOL    HW212302   3.698   7.302   9.712 -0.1121 -0.3917  0.3484
 3621SOL     OW12303   1.420   0.479   6.683  0.1418  0.1582  0.3040
 3621SOL    HW112304   1.387   0.563   6.650  1.7433  1.1545  1.1310
 3621SOL    HW212305   1.407   0.418   6.611  0.1127  1.4119 -0.7857
 3622SOL     OW12306   5.149   1.678   3.333  0.5247 -0.1544 -0.2343
 3622SOL    HW112307   5.215   1.747   3.324  0.5769 -0.2719 -0.8156
 3622SOL    HW212308   5.197   1.603   3.370  1.3737 -1.1121 -2.9906
 3623SOL     OW12309   2.591   1.757   9.162 -0.0343  0.0843  0.0596
 3623SOL    HW112310   2.649   1.826   9.196 -0.9489  2.6036 -3.0254
 3623SOL    HW212311   2.504   1.797   9.163 -1.1267 -2.1450  0.7901
 3624SOL     OW12312   2.585   1.420  12.378 -0.1916 -0.4188  0.3138
 3624SOL    HW112313   2.526   1.366  12.325 -1.4015  0.0292  1.1396
 3624SOL    HW212314   2.530   1.449  12.451  1.7288 -2.0765  2.5557
 3625SOL     OW12315   5.830   5.279  11.506 -0.1215 -0.4146 -0.2548
 3625SOL    HW112316   5.743   5.309  11.479  0.2363  0.9329  0.0290
 3625SOL    HW212317   5.890   5.340  11.464  0.7501 -1.6728 -0.9274
 3626SOL     OW12318   2.184   0.020  12.416  0.0709 -0.0228  0.3466
 3626SOL    HW112319   2.228   0.038  12.499  0.0319 -3.4267  1.2685
 3626SOL    HW212320   2.238  -0.049  12.375 -0.4506  0.8859 -2.0377
 3627SOL     OW12321   4.971   2.842   0.064  0.7027  0.0514 -0.8666
 3627SOL    HW112322   4.878   2.835   0.046  0.3947 -0.6091  0.8101
 3627SOL    HW212323   4.983   2.931   0.096  0.6956  0.2207 -1.3342
 3628SOL     OW12324   7.511   7.089   5.273  0.1418 -0.1549 -0.1867
 3628SOL    HW112325   7.496   7.141   5.352  1.0698  2.5852 -1.6842
 3628SOL    HW212326   7.501   7.151   5.201  0.0065 -2.3873 -2.2384
 3629SOL     OW12327   0.910   2.274   5.224 -0.0355 -0.2063 -0.1606
 3629SOL    HW112328   0.943   2.338   5.286 -0.6343 -0.4802  0.4527
 3629SOL    HW212329   0.864   2.325   5.158  0.2848  0.0564 -0.1843
 3630SOL     OW12330   2.397   1.029   3.185 -0.2282 -0.1892  0.3956
 3630SOL    HW112331   2.303   1.012   3.189 -0.1383 -0.8713 -0.1954
 3630SOL    HW212332   2.437   0.942   3.189  0.3025 -0.0771 -1.4963
 3631SOL     OW12333   2.058   7.347   7.068  0.2817 -0.0801  0.5309
 3631SOL    HW112334   2.019   7.278   7.013 -0.1172  0.2876  0.3483
 3631SOL    HW212335   1.996   7.358   7.140  0.9624 -0.7871  1.2393
 3632SOL     OW12336   7.827   6.814   7.146  0.2181  0.5938  0.0053
 3632SOL    HW112337   7.759   6.765   7.100  1.4179  0.5217 -1.8191
 3632SOL    HW212338   7.820   6.786   7.237 -1.5077 -0.1735 -0.3321
 3633SOL     OW12339   4.179   1.437  11.509 -0.1747  0.0501 -0.0435
 3633SOL    HW112340   4.204   1.500  11.442  2.5377 -0.4592  0.3863
 3633SOL    HW212341   4.142   1.363  11.460  2.9911 -0.9073 -1.2426
 3634SOL     OW12342   3.171   5.945   6.790  0.4802  0.1346 -0.1799
 3634SOL    HW112343   3.204   5.871   6.842 -0.4352 -0.9295 -1.0739
 3634SOL    HW212344   3.211   6.022   6.831 -1.3582 -0.4713  3.0845
 3635SOL     OW12345   2.119   1.013   3.140  0.0554  0.2765 -0.3869
 3635SOL    HW112346   2.058   1.002   3.066  0.6450  0.0951 -0.8500
 3635SOL    HW212347   2.073   1.072   3.199  0.1833  1.6811 -1.6148
 3636SOL     OW12348   4.769   1.940   3.015  0.4943  0.1905 -0.1934
 3636SOL    HW112349   4.751   2.032   2.996  1.1023  0.4130  0.2646
 3636SOL    HW212350   4.862   1.929   2.994  1.3785  0.5868  2.9703
 3637SOL     OW12351   4.905   2.200   3.505 -0.5819  0.8932  0.4805
 3637SOL    HW112352   4.898   2.210   3.600 -0.1407  1.5031  0.4565
 3637SOL    HW212353   4.832   2.142   3.481 -0.2987  0.1990  1.2673
 3638SOL     OW12354   6.724   0.859  11.905 -0.0978  0.4282  0.1466
 3638SOL    HW112355   6.766   0.833  11.987  0.9290  0.6333 -0.2992
 3638SOL    HW212356   6.686   0.778  11.871  2.1542 -0.3683 -0.7040
 3639SOL     OW12357   1.085   5.395  12.363 -0.1769  0.1845  0.6418
 3639SOL    HW112358   1.121   5.350  12.287 -1.5918 -1.2190  0.7618
 3639SOL    HW212359   1.019   5.455  12.327  1.4891  2.0262  0.5100
 3640SOL     OW12360   0.717   4.307   5.072  0.5445 -0.1188  0.1385
 3640SOL    HW112361   0.809   4.330   5.060  1.0230 -0.9070  1.9815
 3640SOL    HW212362   0.676   4.387   5.106  0.8989 -0.2169  0.8097
 3641SOL     OW12363   4.679   4.014  10.133  0.8591  0.0309  0.1371
 3641SOL    HW112364   4.609   4.051  10.080  1.7667  1.4640 -0.0987
 3641SOL    HW212365   4.708   4.086  10.189  0.0054 -1.3859  2.5619
 3642SOL     OW12366   3.167   7.094  11.517 -0.2909  0.2860  0.1331
 3642SOL    HW112367   3.202   7.117  11.431 -1.5535 -0.6063 -0.6593
 3642SOL    HW212368   3.203   7.007  11.535  1.7140  1.3222  1.5504
 3643SOL     OW12369   0.274   0.962  10.978  0.0512  0.1831 -0.3890
 3643SOL    HW112370   0.223   0.895  11.023  0.0079  0.7769  0.4612
 3643SOL    HW212371   0.208   1.014  10.931 -0.1934  1.1429  0.9610
 3644SOL     OW12372   7.078   6.420   1.625 -0.2238 -0.0287  0.3349
 3644SOL    HW112373   7.076   6.325   1.622  0.8476 -0.0881  0.8949
 3644SOL    HW212374   7.166   6.441   1.655 -0.6454  1.1328  0.8167
 3645SOL     OW12375   4.703   4.134   7.018  0.3835 -0.1813 -0.4887
 3645SOL    HW112376   4.689   4.091   7.103  0.5359 -1.3976 -1.0663
 3645SOL    HW212377   4.766   4.204   7.037 -0.1230  0.0165  0.5344
 3646SOL     OW12378   2.724   7.507   2.221 -0.6525 -0.0193  0.2297
 3646SOL    HW112379   2.772   7.585   2.195 -0.1443  0.0107  1.2397
 3646SOL    HW212380   2.682   7.477   2.140  0.8044  0.1239 -0.6093
 3647SOL     OW12381   5.894   2.850   9.445 -0.8799  0.5529  0.7594
 3647SOL    HW112382   5.873   2.860   9.538 -2.7844 -0.5842  0.4983
 3647SOL    HW212383   5.927   2.761   9.438 -1.4701  0.3667  0.2494
 3648SOL     OW12384   0.205   6.961   4.870  0.2186  0.0993  0.3248
 3648SOL    HW112385   0.178   7.046   4.837  0.8134  0.2619  0.2443
 3648SOL    HW212386   0.269   6.930   4.807  0.3899 -0.1758  0.6283
 3649SOL     OW12387   2.809   5.977   2.898 -0.2740  0.1184 -0.3279
 3649SOL    HW112388   2.766   5.989   2.982  0.6158  0.6354  0.0698
 3649SOL    HW212389   2.794   6.059   2.851  0.4145  0.3672 -0.1186
 3650SOL     OW12390   6.702   7.291   4.488 -0.3863  0.7689  0.1875
 3650SOL    HW112391   6.654   7.209   4.487  0.5809  0.1879  0.5849
 3650SOL    HW212392   6.679   7.333   4.404 -0.1026 -0.3624 -0.4731
 3651SOL     OW12393   7.468   0.952   5.440 -0.2405  0.1846 -0.3185
 3651SOL    HW112394   7.496   0.861   5.456 -0.8539  0.0107 -0.2074
 3651SOL    HW212395   7.516   1.003   5.505  0.1272 -0.0530 -0.3946
 3652SOL     OW12396   7.090   6.323   3.593  0.2069 -0.2928  0.2369
 3652SOL    HW112397   7.005   6.281   3.609 -0.7328  0.7573 -1.6350
 3652SOL    HW212398   7.154   6.265   3.634 -1.4181 -0.9740  1.9697
 3653SOL     OW12399   0.078   3.328   5.761  0.0718 -0.0008 -0.7909
 3653SOL    HW112400   0.041   3.417   5.760  0.2944  0.0885 -1.1073
 3653SOL    HW212401   0.162   3.338   5.806  0.9104  0.2815 -2.3255
 3654SOL     OW12402   4.757   1.354   9.422 -0.3071  0.1109  0.2585
 3654SOL    HW112403   4.850   1.331   9.419 -0.2759  0.2848 -0.1649
 3654SOL    HW212404   4.721   1.319   9.340 -0.5256  0.4347  0.2153
 3655SOL     OW12405   4.167   4.587   9.233 -0.2014 -0.1193 -0.9638
 3655SOL    HW112406   4.126   4.662   9.190 -0.8236 -0.3242 -0.7453
 3655SOL    HW212407   4.119   4.511   9.200 -0.6516 -0.2862  0.0114
 3656SOL     OW12408   7.723   2.759   0.626 -0.1485 -0.3400  0.1299
 3656SOL    HW112409   7.812   2.787   0.604 -0.1966 -0.7539 -0.6283
 3656SOL    HW212410   7.669   2.837   0.612 -0.2056 -0.6222 -1.4790
 3657SOL     OW12411   6.509   5.950  10.157 -0.6571 -0.1708  0.0864
 3657SOL    HW112412   6.534   5.957  10.249 -0.1708 -1.7067  0.0889
 3657SOL    HW212413   6.509   5.856  10.138  1.9087  0.1723 -2.2065
 3658SOL     OW12414   7.454   5.542   4.877  0.1109 -0.4122  0.2961
 3658SOL    HW112415   7.476   5.635   4.873  1.1608 -0.6854 -0.6062
 3658SOL    HW212416   7.495   5.511   4.958  1.3198 -0.4608 -0.3128
 3659SOL     OW12417   3.654   1.543   1.802 -0.4825  0.1408 -0.1217
 3659SOL    HW112418   3.714   1.471   1.784 -1.5784 -1.0176  0.7426
 3659SOL    HW212419   3.709   1.611   1.840  0.2685 -0.9462  0.7657
 3660SOL     OW12420   4.627   5.272   8.462  0.2539 -0.8415  0.6116
 3660SOL    HW112421   4.568   5.197   8.471 -0.2614 -0.3765  1.2284
 3660SOL    HW212422   4.714   5.234   8.465  0.0109 -1.3526  1.6125
 3661SOL     OW12423   4.868   2.944   9.299 -0.1920  0.1445 -0.3579
 3661SOL    HW112424   4.921   3.023   9.306 -0.0296  0.1877 -1.7588
 3661SOL    HW212425   4.799   2.956   9.364  0.9961  0.4726  0.9022
 3662SOL     OW12426   6.627   0.311   9.416 -0.2777 -0.5683  0.7195
 3662SOL    HW112427   6.550   0.365   9.398 -0.9256 -1.5140  0.5733
 3662SOL    HW212428   6.642   0.263   9.335  0.5673 -0.2828  0.6975
 3663SOL     OW12429   3.908   7.532  11.921  0.4439 -0.2325 -0.0274
 3663SOL    HW112430   3.982   7.573  11.876  1.2531 -1.9908 -0.3747
 3663SOL    HW212431   3.858   7.489  11.851 -1.9540  2.3134 -0.0609
 3664SOL     OW12432   3.798   6.967   0.686 -0.2751  0.1482 -0.2098
 3664SOL    HW112433   3.837   6.997   0.603 -2.2155 -1.6281 -1.8787
 3664SOL    HW212434   3.873   6.946   0.741  1.0983  2.5433 -1.0055
 3665SOL     OW12435   0.773   0.997   2.899 -0.1339 -0.0423 -0.6399
 3665SOL    HW112436   0.693   1.050   2.906 -0.1282 -0.0153 -0.7880
 3665SOL    HW212437   0.831   1.034   2.966 -1.0244 -1.4392  1.0026
 3666SOL     OW12438   5.885   2.213   8.269 -0.0540  0.0679  0.1433
 3666SOL    HW112439   5.967   2.172   8.242 -1.0907 -1.8300 -0.3197
 3666SOL    HW212440   5.881   2.200   8.364 -0.0901 -0.3898  0.0818
 3667SOL     OW12441   0.335   0.587   3.477  0.2870 -0.2726 -0.6407
 3667SOL    HW112442   0.242   0.567   3.486  0.2576 -0.6794 -1.7729
 3667SOL    HW212443   0.344   0.619   3.387  1.4712 -1.5337 -0.9962
 3668SOL     OW12444   4.877   4.279   5.975  0.6132 -0.6262  0.1749
 3668SOL    HW112445   4.894   4.373   5.988 -0.9673 -0.1679 -0.7855
 3668SOL    HW212446   4.920   4.259   5.892  2.3720 -1.2074  1.1572
 3669SOL     OW12447   0.260   0.450   4.966  0.2148  0.0295  0.4833
 3669SOL    HW112448   0.253   0.543   4.943 -0.9603 -0.1318  0.1131
 3669SOL    HW212449   0.192   0.437   5.032  1.2460 -0.2919  1.5085
 3670SOL     OW12450   5.330   1.022   1.631  0.1977  0.2617 -0.5266
 3670SOL    HW112451   5.398   1.088   1.647 -0.6693  1.6033 -2.0126
 3670SOL    HW212452   5.357   0.946   1.682  1.1353  1.8257  1.4533
 3671SOL     OW12453   4.836   4.361  10.620  0.0170 -0.0527 -0.2636
 3671SOL    HW112454   4.750   4.356  10.661 -0.5001  1.4102 -1.1062
 3671SOL    HW212455   4.870   4.271  10.623 -2.5952 -1.2238 -2.2320
 3672SOL     OW12456   3.064   6.896   0.424 -0.0433  0.8196 -0.3855
 3672SOL    HW112457   3.117   6.868   0.498 -0.9841  1.6991  0.6613
 3672SOL    HW212458   3.053   6.817   0.371  1.0302  0.2870  0.1560
 3673SOL     OW12459   2.929   1.126   2.109  0.9184 -0.2730  0.3639
 3673SOL    HW112460   2.894   1.097   2.193  2.3908 -0.9202  0.7844
 3673SOL    HW212461   3.021   1.101   2.112  1.5490  1.7529 -0.5114
 3674SOL     OW12462   3.421   7.009   3.217  0.2390 -0.1194  0.5211
 3674SOL    HW112463   3.491   6.983   3.157 -0.8281 -0.9347 -0.4157
 3674SOL    HW212464   3.459   7.081   3.267  1.4730  0.0124 -0.5237
 3675SOL     OW12465   0.268   4.675   4.568 -0.6500  0.0712  0.0242
 3675SOL    HW112466   0.283   4.617   4.493  0.4726 -0.6520  0.7610
 3675SOL    HW212467   0.219   4.749   4.532 -0.8534 -0.6448 -1.2444
 3676SOL     OW12468   3.653   2.823   0.558  0.3593  0.5106 -0.1269
 3676SOL    HW112469   3.621   2.826   0.648  1.4176 -0.9304  0.3259
 3676SOL    HW212470   3.641   2.912   0.525 -0.8298  0.8451  1.1520
 3677SOL     OW12471   6.858   2.955   4.251 -0.3143  0.0656 -0.4094
 3677SOL    HW112472   6.817   3.020   4.307 -0.8222 -0.7254  0.1550
 3677SOL    HW212473   6.935   2.999   4.215  0.2812  0.4356  1.2652
 3678SOL     OW12474   0.579   6.736   4.407 -0.1893 -0.0684  0.2298
 3678SOL    HW112475   0.667   6.750   4.443  0.8490 -1.1544 -1.7282
 3678SOL    HW212476   0.555   6.648   4.435  0.6968 -0.9895 -1.7101
 3679SOL     OW12477   2.953   7.114   2.410  0.3130  0.1322  0.0288
 3679SOL    HW112478   3.003   7.079   2.336 -0.3648 -1.6288  0.3731
 3679SOL    HW212479   2.944   7.041   2.470 -1.0331  0.9436  0.8557
 3680SOL     OW12480   2.389   1.521   5.410  0.0786  0.1166  0.1869
 3680SOL    HW112481   2.444   1.446   5.433 -0.4659 -0.0821  0.8892
 3680SOL    HW212482   2.388   1.575   5.489  0.4709  0.8732 -0.3154
 3681SOL     OW12483   3.516   6.127   7.209 -0.4114 -0.0848  0.2866
 3681SOL    HW112484   3.575   6.200   7.227 -1.6433  0.4489  2.4630
 3681SOL    HW212485   3.574   6.056   7.180  1.1238  0.8273  0.9991
 3682SOL     OW12486   0.376   5.051   2.102 -0.2302  0.8504  0.5573
 3682SOL    HW112487   0.402   5.013   2.186  1.6883 -2.2044 -1.2617
 3682SOL    HW212488   0.431   5.129   2.094  2.7626 -1.0971  0.4248
 3683SOL     OW12489   2.163   1.505   5.094  0.7814 -0.2138  0.6546
 3683SOL    HW112490   2.159   1.460   5.179  1.0628  1.2689  1.4979
 3683SOL    HW212491   2.071   1.513   5.067  0.7677 -2.0259  0.0478
 3684SOL     OW12492   3.898   6.996   4.053  0.3746 -0.3780  0.0144
 3684SOL    HW112493   3.991   7.006   4.034  0.4375  0.3308  0.6900
 3684SOL    HW212494   3.881   6.903   4.035  1.1409 -0.4549 -0.3781
 3685SOL     OW12495   6.202   6.364   0.358  0.1386  0.8928  0.7789
 3685SOL    HW112496   6.251   6.347   0.277 -1.0999 -1.3843  0.4318
 3685SOL    HW212497   6.249   6.315   0.425 -0.0841  0.9721  0.9914
 3686SOL     OW12498   7.850   4.981   8.272 -0.0435 -0.2384  0.2319
 3686SOL    HW112499   7.928   5.032   8.250  0.0086  0.2368  1.4288
 3686SOL    HW212500   7.881   4.891   8.277  0.0927 -0.2649 -0.8106
 3687SOL     OW12501   6.421   0.383   9.074  0.1603  0.2293  0.2960
 3687SOL    HW112502   6.482   0.455   9.086  1.8517 -1.2903  1.2600
 3687SOL    HW212503   6.384   0.368   9.161 -1.5061  1.0209 -0.2410
 3688SOL     OW12504   1.563   6.518   2.526  0.1636 -0.4608 -0.0837
 3688SOL    HW112505   1.474   6.485   2.532  0.2755 -0.5512  1.4210
 3688SOL    HW212506   1.606   6.488   2.606  1.0898  0.9012 -0.0286
 3689SOL     OW12507   7.283   7.752  10.605 -0.1157  0.0429  0.6858
 3689SOL    HW112508   7.358   7.806  10.578  1.4765 -2.0030  0.7147
 3689SOL    HW212509   7.212   7.780  10.548  0.8146  1.7064  0.2679
 3690SOL     OW12510   0.116   0.056   4.783  0.2465 -0.4280 -0.1510
 3690SOL    HW112511   0.062   0.055   4.704  0.0256 -0.2691 -0.0029
 3690SOL    HW212512   0.167   0.137   4.775  0.6110 -0.6830 -0.3916
 3691SOL     OW12513   1.718   3.022   4.089  0.0440 -0.1614  0.9489
 3691SOL    HW112514   1.737   2.946   4.033 -1.5958 -0.0359  0.1673
 3691SOL    HW212515   1.640   2.996   4.138 -3.7865  2.6247 -2.9294
 3692SOL     OW12516   3.437   1.508  12.222  0.2610 -0.6720 -0.2384
 3692SOL    HW112517   3.510   1.562  12.253  0.5415 -0.3680 -1.3744
 3692SOL    HW212518   3.441   1.430  12.278  0.3011  0.1352  0.9330
 3693SOL     OW12519   0.249   0.173   0.296 -0.3851 -0.2695 -0.3288
 3693SOL    HW112520   0.157   0.165   0.324 -0.3157 -0.8389 -0.2507
 3693SOL    HW212521   0.244   0.177   0.201 -0.4899 -0.3255 -0.3267
 3694SOL     OW12522   1.028   1.239   8.243  0.5642  0.3437  0.1903
 3694SOL    HW112523   0.938   1.218   8.217  0.7375  0.1399 -0.2627
 3694SOL    HW212524   1.082   1.189   8.182  0.9950  1.7977 -0.6728
 3695SOL     OW12525   1.984   0.020   0.824 -0.5031 -0.0098  0.1948
 3695SOL    HW112526   1.944  -0.024   0.748 -3.3133 -1.4706  2.3242
 3695SOL    HW212527   2.075   0.034   0.797 -0.6883 -2.7021 -2.5415
 3696SOL     OW12528   7.620   0.714   6.688  0.7063  0.8123  0.6028
 3696SOL    HW112529   7.669   0.797   6.689  1.6818  0.2400  0.9068
 3696SOL    HW212530   7.613   0.692   6.595  1.4764  0.6443  0.5773
 3697SOL     OW12531   1.678   4.524   7.412  0.0935 -0.2310 -0.8300
 3697SOL    HW112532   1.654   4.565   7.495 -0.3314 -0.2992 -0.9207
 3697SOL    HW212533   1.773   4.514   7.417  0.0419 -0.4386 -0.2583
 3698SOL     OW12534   2.509   0.630   1.836 -0.3478  0.4080 -0.0182
 3698SOL    HW112535   2.523   0.684   1.914 -1.1793  0.5882  0.0213
 3698SOL    HW212536   2.587   0.575   1.830  0.0873  0.9624  0.4783
 3699SOL     OW12537   5.091   4.434   4.611 -0.2480 -0.1358  0.4242
 3699SOL    HW112538   5.120   4.518   4.648  0.4664  0.0814 -0.5806
 3699SOL    HW212539   5.167   4.376   4.619  0.0092 -0.0193 -0.8456
 3700SOL     OW12540   5.802   0.743   3.788 -0.1530 -0.1581  0.3014
 3700SOL    HW112541   5.803   0.771   3.879 -2.4608 -0.8645  0.6110
 3700SOL    HW212542   5.820   0.649   3.791 -1.2550 -0.3855  0.1574
 3701SOL     OW12543   0.667   1.905   9.221  0.3176 -0.3607  0.6468
 3701SOL    HW112544   0.592   1.933   9.273  1.0642  0.4208  1.3511
 3701SOL    HW212545   0.734   1.882   9.285  1.2545  0.6123  0.0653
 3702SOL     OW12546   1.231   6.054  12.229  0.0250  0.3470 -0.2827
 3702SOL    HW112547   1.165   6.063  12.160 -0.8347 -1.6196  0.1942
 3702SOL    HW212548   1.189   5.998  12.295  1.3258  1.0225  1.1766
 3703SOL     OW12549   5.662   6.645   3.580  0.3168  0.9487 -0.6790
 3703SOL    HW112550   5.690   6.663   3.490  0.6438  0.5566 -0.6589
 3703SOL    HW212551   5.738   6.604   3.621 -0.3888 -0.4883 -0.7319
 3704SOL     OW12552   5.483   4.257   3.318  0.1611  0.5691  0.1985
 3704SOL    HW112553   5.524   4.280   3.401 -0.1263 -0.3523  0.6176
 3704SOL    HW212554   5.524   4.173   3.294 -1.5574 -0.4771  0.7269
 3705SOL     OW12555   0.225   7.456   1.204 -0.2785  0.2089 -0.3447
 3705SOL    HW112556   0.206   7.543   1.168 -0.0464  0.2072 -0.4752
 3705SOL    HW212557   0.313   7.436   1.172  0.1897  0.4683  0.7376
 3706SOL     OW12558   4.705   2.458   5.189  0.4396  0.1514  0.1072
 3706SOL    HW112559   4.670   2.502   5.111 -0.4565 -1.7354 -0.6213
 3706SOL    HW212560   4.772   2.518   5.222 -0.2833  1.7543 -1.1598
 3707SOL     OW12561   6.732   3.103   8.330 -0.1259  0.0855  0.5215
 3707SOL    HW112562   6.755   3.129   8.241 -2.0116 -0.4548 -0.1631
 3707SOL    HW212563   6.809   3.125   8.382  0.8932  0.7044 -1.1806
 3708SOL     OW12564   0.922   2.722   5.823  0.0821  0.1940  0.1398
 3708SOL    HW112565   1.016   2.739   5.822  0.0888  0.1731  0.3920
 3708SOL    HW212566   0.909   2.655   5.757  0.4190 -0.7200  0.9745
 3709SOL     OW12567   0.714   7.470   8.929 -0.3190  0.2789  0.1880
 3709SOL    HW112568   0.672   7.529   8.991  0.2460  0.3560  0.4968
 3709SOL    HW212569   0.726   7.523   8.850  0.4141  0.6499  0.5467
 3710SOL     OW12570   4.901   4.525   9.533  0.4868  0.4820 -0.4307
 3710SOL    HW112571   4.850   4.512   9.613  2.6291  2.3690  1.3621
 3710SOL    HW212572   4.844   4.577   9.477 -0.4811  0.4597  0.5009
 3711SOL     OW12573   7.557   4.430   9.020 -0.1427  0.0845 -0.1157
 3711SOL    HW112574   7.561   4.438   8.925 -0.5587 -1.0306 -0.2485
 3711SOL    HW212575   7.624   4.490   9.053 -0.4206  0.9342 -1.0799
 3712SOL     OW12576   6.649   3.894   7.550 -0.2847  0.1809 -0.0303
 3712SOL    HW112577   6.587   3.822   7.565  0.2058 -0.1672  0.3272
 3712SOL    HW212578   6.593   3.972   7.545 -0.7412 -0.1073  0.4341
 3713SOL     OW12579   3.154   7.556   2.868 -0.7735 -0.3079 -0.4185
 3713SOL    HW112580   3.133   7.645   2.898  0.3374  0.2850 -1.2938
 3713SOL    HW212581   3.166   7.506   2.948  1.4620  1.0652  0.2128
 3714SOL     OW12582   0.407   2.318   3.207  0.0656  0.1522 -0.1901
 3714SOL    HW112583   0.498   2.311   3.238 -0.3041 -1.1125  0.6889
 3714SOL    HW212584   0.385   2.411   3.220  0.9412  0.2842  0.4776
 3715SOL     OW12585   1.014   4.787  11.074  0.0045  0.4354  0.2136
 3715SOL    HW112586   1.093   4.808  11.123  0.3760 -0.4617  0.0156
 3715SOL    HW212587   0.971   4.718  11.126 -0.2114  0.3248 -0.1084
 3716SOL     OW12588   2.704   3.209   2.667 -0.3421  0.2142  0.1259
 3716SOL    HW112589   2.684   3.297   2.635 -2.2378  0.0272  0.6954
 3716SOL    HW212590   2.697   3.216   2.762  0.3736 -0.3677  0.2326
 3717SOL     OW12591   5.587   1.539   1.477  0.2796  0.1018  0.6249
 3717SOL    HW112592   5.653   1.588   1.427  0.1782  0.6600  1.0257
 3717SOL    HW212593   5.533   1.607   1.518  0.4326 -0.3431  1.5914
 3718SOL     OW12594   6.335   1.735   5.527  0.6038  0.0574 -0.0066
 3718SOL    HW112595   6.369   1.702   5.610 -2.0181 -1.0575  0.7196
 3718SOL    HW212596   6.279   1.665   5.494  0.0786  1.2279 -1.7880
 3719SOL     OW12597   6.783   3.195   1.778  0.6364 -0.2018 -0.0245
 3719SOL    HW112598   6.811   3.253   1.708  0.6241 -0.9536 -0.6640
 3719SOL    HW212599   6.807   3.107   1.748  0.7279 -0.5284  0.9595
 3720SOL     OW12600   0.897   3.261   8.387  0.2828 -0.2252 -0.0492
 3720SOL    HW112601   0.883   3.345   8.342 -0.1498 -0.7927 -1.0149
 3720SOL    HW212602   0.962   3.280   8.454 -1.7998  1.5255  1.6073
 3721SOL     OW12603   6.704   0.374   5.329 -0.6227  0.2748  0.2125
 3721SOL    HW112604   6.695   0.451   5.385  2.6921 -0.3080  1.8058
 3721SOL    HW212605   6.727   0.303   5.390 -0.1987 -1.1596 -1.5363
 3722SOL     OW12606   2.001   0.848   0.734 -0.5819 -0.7145 -0.3831
 3722SOL    HW112607   2.080   0.900   0.753 -0.0970 -1.5249 -0.1566
 3722SOL    HW212608   1.981   0.869   0.642 -0.4947 -0.0045 -0.2513
 3723SOL     OW12609   3.050   5.712  11.059 -0.4013 -0.1216 -0.2308
 3723SOL    HW112610   2.956   5.727  11.053 -0.5128 -1.0136 -0.8698
 3723SOL    HW212611   3.062   5.653  11.133 -0.3861 -0.3148 -0.3860
 3724SOL     OW12612   4.260   3.499  10.374  0.2522 -0.0941 -0.5244
 3724SOL    HW112613   4.204   3.451  10.435 -0.8520  1.4272 -0.2879
 3724SOL    HW212614   4.349   3.485  10.406 -0.1411 -0.9658  0.2270
 3725SOL     OW12615   5.280   2.171  11.565 -0.7123  0.4630 -0.1277
 3725SOL    HW112616   5.293   2.140  11.655 -0.2478  2.1332  0.4234
 3725SOL    HW212617   5.362   2.216  11.544 -1.5172  1.7408 -0.6644
 3726SOL     OW12618   6.931   0.142   3.344 -0.1600  0.2101  0.0785
 3726SOL    HW112619   6.934   0.154   3.439 -1.0914  1.6820 -0.0533
 3726SOL    HW212620   6.916   0.229   3.309  4.4384  0.5884 -1.7221
 3727SOL     OW12621   3.063   6.984   0.926  0.4475 -0.1885 -0.2926
 3727SOL    HW112622   3.145   7.008   0.970 -0.2953 -1.0017  1.6527
 3727SOL    HW212623   3.080   7.001   0.833  2.2095  1.3240  0.2371
 3728SOL     OW12624   1.331   7.298   5.262 -0.4488 -0.3551  0.3271
 3728SOL    HW112625   1.374   7.272   5.180  1.0182 -0.9629  1.2526
 3728SOL    HW212626   1.350   7.391   5.271  0.4798 -0.5528  0.5758
 3729SOL     OW12627   2.992   0.139   4.050  0.5194 -0.3622  0.0479
 3729SOL    HW112628   3.002   0.085   3.972  2.0818 -0.1416  0.0463
 3729SOL    HW212629   3.082   0.159   4.076  0.0360 -0.3547  1.8507
 3730SOL     OW12630   6.144   7.496   0.137  0.1787  0.6789  0.2826
 3730SOL    HW112631   6.217   7.511   0.197  0.6082  0.1152 -0.0910
 3730SOL    HW212632   6.183   7.452   0.061 -0.1246  2.4391 -0.9568
 3731SOL     OW12633   0.661   3.402   7.193  0.3428  0.4366 -0.1446
 3731SOL    HW112634   0.566   3.412   7.198  0.3960  1.1835 -0.3929
 3731SOL    HW212635   0.696   3.487   7.221  0.9273  0.2446 -0.2668
 3732SOL     OW12636   0.795   5.532   0.750  0.7553 -0.0706 -0.4098
 3732SOL    HW112637   0.794   5.515   0.656  2.5242  0.7226 -0.6175
 3732SOL    HW212638   0.817   5.447   0.789  4.8316  0.4147 -1.1296
 3733SOL     OW12639   2.112   3.458   9.116  0.7591  0.1485  0.3053
 3733SOL    HW112640   2.043   3.468   9.050  2.0753 -1.1809 -1.3977
 3733SOL    HW212641   2.157   3.542   9.116  0.0388  0.5462  0.3750
 3734SOL     OW12642   7.286   3.897   6.246 -0.5501  0.5696  0.0204
 3734SOL    HW112643   7.275   3.890   6.341  1.1701  1.6867  0.3666
 3734SOL    HW212644   7.336   3.978   6.235 -1.1190  0.6888 -1.8873
 3735SOL     OW12645   5.210   0.500   2.377 -0.4068  0.0478  0.0812
 3735SOL    HW112646   5.186   0.485   2.285 -1.4411 -0.1327  0.3665
 3735SOL    HW212647   5.167   0.582   2.400 -1.8118 -0.8847  0.9513
 3736SOL     OW12648   6.412   5.315   5.950  0.0764 -0.5113 -0.1350
 3736SOL    HW112649   6.340   5.373   5.923  0.7816  0.4749  0.0891
 3736SOL    HW212650   6.424   5.257   5.875  0.1926  0.4515 -0.8841
 3737SOL     OW12651   2.552   4.549   0.605 -0.1873 -0.0652  0.2067
 3737SOL    HW112652   2.466   4.585   0.583 -0.3008  0.0505  0.8136
 3737SOL    HW212653   2.609   4.625   0.611 -0.5457  0.1087  2.0326
 3738SOL     OW12654   2.114   7.030   4.146  0.1104 -0.0383 -0.6119
 3738SOL    HW112655   2.115   7.015   4.241  0.1089 -0.5416 -0.6910
 3738SOL    HW212656   2.144   7.120   4.137  0.5276 -0.1211 -0.1560
 3739SOL     OW12657   5.097   0.816   7.226  0.0097 -0.2091 -0.5804
 3739SOL    HW112658   5.014   0.863   7.229 -0.3465 -0.7131 -1.8258
 3739SOL    HW212659   5.119   0.800   7.318 -0.9878  0.4143 -0.2185
 3740SOL     OW12660   7.747   4.927   2.985  0.0406  0.4794  0.3564
 3740SOL    HW112661   7.778   4.838   3.000 -1.0369  0.1111  0.4546
 3740SOL    HW212662   7.684   4.918   2.913  0.5451  1.2960 -0.2117
 3741SOL     OW12663   0.652   3.930   7.223  0.0983  0.0765 -0.1263
 3741SOL    HW112664   0.636   3.984   7.301  0.4565  0.4152 -0.2872
 3741SOL    HW212665   0.735   3.962   7.188  0.7053 -1.0803  0.1984
 3742SOL     OW12666   6.446   2.301   8.408 -0.0887  0.3238  0.3544
 3742SOL    HW112667   6.478   2.213   8.428 -0.4515 -0.4256 -1.9641
 3742SOL    HW212668   6.356   2.302   8.440  0.9769  1.2327  3.7431
 3743SOL     OW12669   3.322   0.525  11.696  0.6858 -0.5669  0.2015
 3743SOL    HW112670   3.263   0.458  11.731  0.8813 -0.1439  1.3988
 3743SOL    HW212671   3.268   0.604  11.692  0.9150 -0.4002  0.4094
 3744SOL     OW12672   7.423   0.469   5.027 -0.2733  0.1050  0.2950
 3744SOL    HW112673   7.448   0.464   4.935 -2.2993  2.1105 -0.4353
 3744SOL    HW212674   7.327   0.471   5.026 -0.3503 -0.0454  2.4876
 3745SOL     OW12675   3.286   5.023   9.595 -0.1720  0.4747  0.2901
 3745SOL    HW112676   3.265   4.943   9.546  0.5708 -0.0674  0.8389
 3745SOL    HW212677   3.381   5.022   9.602 -0.1587  1.3939  0.3425
 3746SOL     OW12678   4.135   5.585  11.872  0.3662 -0.7291  0.4301
 3746SOL    HW112679   4.144   5.565  11.965 -0.5694  2.0077  1.2211
 3746SOL    HW212680   4.042   5.569  11.853 -0.1580  1.5614  0.8192
 3747SOL     OW12681   6.188   6.276   9.193  0.1241 -0.3257 -0.0314
 3747SOL    HW112682   6.178   6.307   9.103  0.4087  0.8610  0.3212
 3747SOL    HW212683   6.128   6.331   9.244  0.5064 -0.4829  0.6029
 3748SOL     OW12684   2.930   6.571   6.401  0.5114 -0.0488 -0.0382
 3748SOL    HW112685   2.841   6.535   6.397  0.2420  0.6791 -1.3686
 3748SOL    HW212686   2.928   6.632   6.474 -0.4828  0.8847 -0.7975
 3749SOL     OW12687   0.518   0.844   4.011 -0.2072  0.2251 -0.3171
 3749SOL    HW112688   0.523   0.898   3.932 -0.7659 -1.3398 -1.4884
 3749SOL    HW212689   0.425   0.840   4.031  0.0667  2.7694  2.0840
 3750SOL     OW12690   6.868   2.625  11.177 -0.2946 -0.4697  0.3378
 3750SOL    HW112691   6.868   2.712  11.137  0.0344 -1.0850 -1.0477
 3750SOL    HW212692   6.906   2.568  11.111  2.2356 -1.2220  2.2620
 3751SOL     OW12693   6.895   7.305   9.303  0.1311 -0.2009  0.3847
 3751SOL    HW112694   6.879   7.293   9.209 -1.2624 -0.1487  0.5918
 3751SOL    HW212695   6.901   7.216   9.338  0.2286 -0.2240  0.3078
 3752SOL     OW12696   6.127   2.278   9.809  0.7392  0.3608  0.0375
 3752SOL    HW112697   6.192   2.279   9.879  1.3541 -0.0003 -0.5159
 3752SOL    HW212698   6.178   2.280   9.728  0.2275 -2.4521 -0.4817
 3753SOL     OW12699   3.531   7.963   3.720  0.6434  0.0840 -0.5855
 3753SOL    HW112700   3.593   8.026   3.758  1.7595 -1.2919 -0.0646
 3753SOL    HW212701   3.584   7.909   3.662 -0.3709 -0.1687 -1.3011
 3754SOL     OW12702   6.725   1.720   9.759 -0.2208 -0.4079  0.2184
 3754SOL    HW112703   6.778   1.715   9.839 -1.1659 -1.3381  0.8058
 3754SOL    HW212704   6.784   1.689   9.690 -0.1587 -2.0713  0.9650
 3755SOL     OW12705   4.730   1.712  11.255  0.0090 -0.5161 -0.2308
 3755SOL    HW112706   4.739   1.806  11.240 -0.0372 -0.4151  0.3492
 3755SOL    HW212707   4.820   1.679  11.250 -0.0216 -0.5095 -0.8579
 3756SOL     OW12708   2.627   3.682   6.384  0.3880  0.3100 -0.1063
 3756SOL    HW112709   2.538   3.675   6.418  0.2195 -0.2926 -0.6688
 3756SOL    HW212710   2.681   3.696   6.462 -0.0837 -0.3165  0.3378
 3757SOL     OW12711   0.375   2.384  12.173 -0.1204  0.2724 -0.0518
 3757SOL    HW112712   0.432   2.389  12.097  0.3279  1.1947  0.3390
 3757SOL    HW212713   0.428   2.417  12.246 -0.6743 -0.2190  0.5851
 3758SOL     OW12714   6.092   4.459  12.361  0.3179 -0.7360 -0.0453
 3758SOL    HW112715   6.173   4.471  12.313  0.4951  0.1538  0.4491
 3758SOL    HW212716   6.119   4.426  12.447  0.2215  0.1415  0.3342
 3759SOL     OW12717   3.433   0.926   2.520  0.7175 -0.2006  0.5220
 3759SOL    HW112718   3.354   0.900   2.473  0.8643  0.4161 -0.0857
 3759SOL    HW212719   3.464   0.845   2.561  0.1850 -0.6034  0.1477
 3760SOL     OW12720   3.086   6.675   1.931 -0.7097  0.1680  0.2802
 3760SOL    HW112721   3.066   6.582   1.946 -0.2185  0.1713  1.0018
 3760SOL    HW212722   3.126   6.677   1.844  1.8494 -0.7250  1.3439
 3761SOL     OW12723   1.934   1.341   0.658  0.0934 -0.5067 -0.1715
 3761SOL    HW112724   1.884   1.421   0.671 -0.6321 -1.1443  1.2481
 3761SOL    HW212725   1.869   1.276   0.631  0.2695 -1.1462  0.8946
 3762SOL     OW12726   1.969   5.927  11.737  0.5796 -0.6625 -0.4711
 3762SOL    HW112727   1.940   5.989  11.803  0.6798  0.7576 -1.6975
 3762SOL    HW212728   2.063   5.945  11.728  0.2622  0.3932 -2.1720
 3763SOL     OW12729   2.695   4.800  11.991 -0.2119 -0.0118  0.0549
 3763SOL    HW112730   2.639   4.863  11.944 -0.4137 -0.2092  0.0321
 3763SOL    HW212731   2.634   4.735  12.025 -0.2267  0.8304  1.7116
 3764SOL     OW12732   6.321   5.678   2.762 -0.2951  0.3517 -0.3162
 3764SOL    HW112733   6.230   5.647   2.757  0.3059 -1.7781  0.9096
 3764SOL    HW212734   6.334   5.699   2.854  0.2296  1.4815 -0.6354
 3765SOL     OW12735   2.282   2.487   7.582  0.4657 -0.0011 -0.0526
 3765SOL    HW112736   2.237   2.572   7.581 -1.0756 -0.7808 -1.0844
 3765SOL    HW212737   2.347   2.496   7.652  1.6530  2.6613 -1.3287
 3766SOL     OW12738   0.606   6.939   5.729  0.0789  0.0449  0.4199
 3766SOL    HW112739   0.539   6.964   5.665  0.3726  0.2367  0.1787
 3766SOL    HW212740   0.688   6.939   5.678  0.4233  0.8964  0.9509
 3767SOL     OW12741   3.453   5.701   0.192 -0.2433  0.1046  0.6538
 3767SOL    HW112742   3.393   5.711   0.118 -3.1300 -3.1837  2.2463
 3767SOL    HW212743   3.530   5.753   0.168 -2.1844  1.6005 -3.2379
 3768SOL     OW12744   3.639   7.089   5.315 -0.2256 -0.2885  0.4532
 3768SOL    HW112745   3.676   7.042   5.241  1.1078 -0.2244  1.0555
 3768SOL    HW212746   3.657   7.181   5.297 -0.3123 -0.2365  0.6322
 3769SOL     OW12747   5.576   3.843   5.729  0.2890 -0.2825  0.2405
 3769SOL    HW112748   5.500   3.890   5.693  1.1264  2.7388  2.0190
 3769SOL    HW212749   5.616   3.801   5.653 -0.9517  1.3510 -1.4167
 3770SOL     OW12750   2.532   1.743   2.815  0.3861 -0.0732 -0.1354
 3770SOL    HW112751   2.581   1.668   2.782  0.2264 -0.7507  1.1141
 3770SOL    HW212752   2.493   1.712   2.897  1.0723  1.6378  0.8905
 3771SOL     OW12753   5.488   2.952   3.360 -0.1014  0.3339 -0.0668
 3771SOL    HW112754   5.552   2.978   3.294  1.9230  0.8246  1.9632
 3771SOL    HW212755   5.502   2.859   3.373 -1.6955 -0.1564 -1.4705
 3772SOL     OW12756   6.471   7.032  12.370 -0.7006  0.0326  0.1346
 3772SOL    HW112757   6.459   6.968  12.301 -1.2689 -1.7033  1.7434
 3772SOL    HW212758   6.545   7.086  12.341 -2.3090  0.8576 -2.8023
 3773SOL     OW12759   6.894   3.361  12.187 -0.3432  0.0865 -0.8520
 3773SOL    HW112760   6.925   3.452  12.187  1.3883 -0.4032 -3.5846
 3773SOL    HW212761   6.955   3.315  12.129 -1.2318 -2.8324  0.3608
 3774SOL     OW12762   4.474   2.113   2.121 -0.0118 -0.7834 -0.3719
 3774SOL    HW112763   4.476   2.197   2.167 -0.7660 -0.2618 -1.2569
 3774SOL    HW212764   4.380   2.095   2.111  0.1149 -2.3523  0.8958
 3775SOL     OW12765   3.445   0.046   2.560  0.3933 -0.2781 -0.2800
 3775SOL    HW112766   3.390  -0.032   2.565 -1.8724  1.3007  2.2590
 3775SOL    HW212767   3.475   0.060   2.650  0.5059  1.8925 -0.6001
 3776SOL     OW12768   2.371   5.623   5.435  0.6729 -0.3256  0.1238
 3776SOL    HW112769   2.276   5.616   5.445  0.3479  1.3177 -1.2936
 3776SOL    HW212770   2.394   5.549   5.379  0.2972 -0.9020  0.7099
 3777SOL     OW12771   6.874   4.020   8.131  0.0911  0.3107 -0.2502
 3777SOL    HW112772   6.838   3.978   8.053  0.4701 -0.7496  0.1275
 3777SOL    HW212773   6.968   4.019   8.118  0.2503 -0.9937  0.7318
 3778SOL     OW12774   4.652   5.448   0.525 -0.6533 -0.0561 -0.2740
 3778SOL    HW112775   4.617   5.537   0.520 -2.6825 -0.8626 -3.1574
 3778SOL    HW212776   4.575   5.391   0.527  0.5848 -1.8178  0.8807
 3779SOL     OW12777   0.592   0.859  12.174  0.2679  0.3829 -0.7742
 3779SOL    HW112778   0.515   0.909  12.200  0.5941  1.8454 -2.5055
 3779SOL    HW212779   0.620   0.816  12.255 -2.4884 -0.4488 -0.1350
 3780SOL     OW12780   5.035   0.846  10.696  0.3227  0.0569  0.0077
 3780SOL    HW112781   5.068   0.933  10.674  1.4054 -0.3052  0.1223
 3780SOL    HW212782   5.048   0.839  10.791 -1.2286  0.3541  0.2625
 3781SOL     OW12783   5.389   7.790  11.737  0.8758  0.2086  0.4245
 3781SOL    HW112784   5.338   7.853  11.788 -1.4761  0.4138 -1.9228
 3781SOL    HW212785   5.387   7.825  11.648 -0.9042 -3.2757 -1.0992
 3782SOL     OW12786   5.405   0.956   9.025 -0.0736  0.4816 -0.3956
 3782SOL    HW112787   5.358   0.990   8.949  0.6044 -0.3682 -1.2190
 3782SOL    HW212788   5.399   1.026   9.090 -1.5392  0.8231 -0.8500
 3783SOL     OW12789   3.856   0.650   8.953 -0.2331 -0.3807  0.3803
 3783SOL    HW112790   3.807   0.631   8.873 -1.4322  0.5838  0.8439
 3783SOL    HW212791   3.792   0.640   9.024 -0.1426  2.0781  0.9064
 3784SOL     OW12792   2.041   4.317   9.564  0.0995  0.1466 -0.1777
 3784SOL    HW112793   2.080   4.401   9.541  2.5571 -1.0923 -0.9049
 3784SOL    HW212794   2.016   4.278   9.481  1.9165 -1.0947 -0.2220
 3785SOL     OW12795   5.496   3.344   8.412  0.1480  0.6770  0.0647
 3785SOL    HW112796   5.587   3.373   8.422  0.0426  0.8187  0.6666
 3785SOL    HW212797   5.500   3.271   8.350  0.9695 -0.8050  1.7811
 3786SOL     OW12798   3.982   5.214   0.493 -0.3133  0.0548 -0.1704
 3786SOL    HW112799   4.031   5.270   0.554 -0.5783  0.7828 -0.6147
 3786SOL    HW212800   4.030   5.131   0.492  0.8055  0.6915 -0.4589
 3787SOL     OW12801   0.550   6.932  11.763 -0.1764  0.0652 -0.3755
 3787SOL    HW112802   0.584   7.021  11.768 -2.4689  0.9237  1.8672
 3787SOL    HW212803   0.482   6.928  11.830  0.1274 -3.5349 -0.0803
 3788SOL     OW12804   0.568   5.891   9.838 -0.0877 -0.8199 -0.5136
 3788SOL    HW112805   0.585   5.927   9.925  2.0726  2.5884 -2.1485
 3788SOL    HW212806   0.644   5.836   9.819 -1.1103 -2.5134  0.1241
 3789SOL     OW12807   7.159   4.486   3.243 -0.0470  0.8985  0.2534
 3789SOL    HW112808   7.156   4.396   3.276 -0.0701  0.4543 -0.9006
 3789SOL    HW212809   7.175   4.540   3.320 -1.1538  0.0144  1.1345
 3790SOL     OW12810   5.336   5.642  10.292 -0.0114 -0.5579 -0.3304
 3790SOL    HW112811   5.295   5.576  10.236  0.1855  0.0807 -1.2429
 3790SOL    HW212812   5.392   5.692  10.234  0.0488  0.2538  0.3967
 3791SOL     OW12813   4.845   5.993   6.641  0.0937 -0.1271  0.3206
 3791SOL    HW112814   4.783   5.921   6.656  0.2274 -0.4426 -0.6038
 3791SOL    HW212815   4.865   5.989   6.548  0.7383  0.6044  0.4157
 3792SOL     OW12816   2.827   2.224   7.484  0.1893  0.1374  0.1128
 3792SOL    HW112817   2.841   2.164   7.410  1.3606  2.4230 -1.6647
 3792SOL    HW212818   2.907   2.215   7.537 -0.8811 -1.9004  1.5107
 3793SOL     OW12819   4.276   1.558   7.764 -0.0498 -0.6968 -0.6741
 3793SOL    HW112820   4.295   1.482   7.710 -1.3715 -1.1767 -0.4913
 3793SOL    HW212821   4.192   1.538   7.805 -0.5782  1.0032 -0.8677
 3794SOL     OW12822   0.382   6.611   6.759  0.1942  0.1957 -0.0961
 3794SOL    HW112823   0.381   6.706   6.773 -0.5088  0.3796 -1.2629
 3794SOL    HW212824   0.445   6.578   6.823 -0.9179  1.2300  1.6100
 3795SOL     OW12825   7.096   1.704   1.664  0.0425 -0.1714 -0.4558
 3795SOL    HW112826   7.027   1.715   1.729 -0.9626 -0.0716 -1.5046
 3795SOL    HW212827   7.125   1.613   1.676 -1.0356 -0.5706 -0.7030
 3796SOL     OW12828   7.667   4.059  11.707 -0.0031  0.1574  0.3789
 3796SOL    HW112829   7.588   4.026  11.663 -0.2399  2.9837 -1.5474
 3796SOL    HW212830   7.731   4.068  11.637  0.3673  2.6297  0.9553
 3797SOL     OW12831   6.617   6.564  11.346  0.4376  0.4515  0.2837
 3797SOL    HW112832   6.567   6.537  11.269 -0.3834  0.7301  0.7063
 3797SOL    HW212833   6.607   6.492  11.408  1.1014  0.2254  0.1344
 3798SOL     OW12834   4.960   4.948   6.025  0.5660 -0.1415 -0.4745
 3798SOL    HW112835   5.046   4.926   6.059  1.4140  1.7849 -1.2611
 3798SOL    HW212836   4.966   5.039   5.997 -0.8732 -0.7131 -3.1172
 3799SOL     OW12837   5.856   4.723   0.910 -0.6102  0.3704  0.0070
 3799SOL    HW112838   5.862   4.700   1.003 -1.4879 -1.9356 -0.4256
 3799SOL    HW212839   5.769   4.762   0.901  0.9277  4.4197  0.7647
 3800SOL     OW12840   0.664   3.903  11.493  0.1969 -0.5024  0.3411
 3800SOL    HW112841   0.612   3.980  11.473 -0.4179 -0.8445  0.6081
 3800SOL    HW212842   0.677   3.860  11.409 -0.8544 -0.9770  0.4061
 3801SOL     OW12843   3.560   3.598   6.615  0.5376 -0.4750 -0.0070
 3801SOL    HW112844   3.491   3.637   6.561  0.9087  0.1755 -0.0187
 3801SOL    HW212845   3.540   3.504   6.615 -1.2463 -0.1496  1.2833
 3802SOL     OW12846   1.830   3.051   9.030  0.2996  0.2397 -0.2632
 3802SOL    HW112847   1.813   3.105   9.107  2.9832  0.4765  0.2840
 3802SOL    HW212848   1.904   2.996   9.056  0.3954 -0.6400 -2.2280
 3803SOL     OW12849   4.235   7.677   5.043  0.1974 -0.1669  0.0003
 3803SOL    HW112850   4.146   7.653   5.071 -0.1333 -0.8883 -1.5008
 3803SOL    HW212851   4.292   7.640   5.109 -0.6476  1.3654  1.6671
 3804SOL     OW12852   5.822   1.267   8.527  0.1696  0.2258 -0.3369
 3804SOL    HW112853   5.774   1.295   8.449 -0.6472  0.2659  0.1679
 3804SOL    HW212854   5.787   1.181   8.547 -0.5374  0.7442  0.7138
 3805SOL     OW12855   4.488   1.642   7.386 -0.0006  0.5427 -0.0186
 3805SOL    HW112856   4.509   1.561   7.340 -0.5859  0.3037  0.1192
 3805SOL    HW212857   4.534   1.634   7.470 -1.5960 -0.5600  0.8153
 3806SOL     OW12858   4.303   7.958   0.907 -0.1260 -0.6904 -0.1297
 3806SOL    HW112859   4.267   7.932   0.822  0.9535 -1.7298 -0.3031
 3806SOL    HW212860   4.266   7.895   0.969  0.0951 -0.7364 -0.0437
 3807SOL     OW12861   7.868   7.498   5.362  0.3950  0.4650  0.6324
 3807SOL    HW112862   7.935   7.430   5.367 -1.1821 -1.1296  1.1207
 3807SOL    HW212863   7.842   7.512   5.454 -1.6456 -0.7628  0.2916
 3808SOL     OW12864   0.345   2.433   0.351  1.0453 -0.4994 -0.5077
 3808SOL    HW112865   0.344   2.349   0.395 -0.5949 -0.1249  0.2145
 3808SOL    HW212866   0.394   2.417   0.270  1.0746 -2.0348 -0.2072
 3809SOL     OW12867   7.835   0.008  12.151 -0.3136 -0.0021 -0.1541
 3809SOL    HW112868   7.879   0.089  12.178  0.4595 -0.8241  1.2181
 3809SOL    HW212869   7.855  -0.054  12.221 -1.9402 -1.0318 -0.5511
 3810SOL     OW12870   5.479   6.330   3.879 -0.2342 -0.1507 -0.5637
 3810SOL    HW112871   5.555   6.296   3.927 -1.1968 -1.5790  0.0216
 3810SOL    HW212872   5.477   6.423   3.901  0.6010 -0.3474  0.4485
 3811SOL     OW12873   7.718   2.970   3.705 -0.0929 -0.3530  0.0618
 3811SOL    HW112874   7.762   2.959   3.621 -0.1930 -1.4983  0.1475
 3811SOL    HW212875   7.629   2.940   3.690  0.0350 -1.0972  0.7069
 3812SOL     OW12876   7.027   7.849   7.682 -0.2400  0.2546  0.0961
 3812SOL    HW112877   6.946   7.868   7.728 -1.3089  2.4201 -2.3884
 3812SOL    HW212878   7.083   7.925   7.698 -1.5956  2.3628 -3.8507
 3813SOL     OW12879   3.012   7.601   2.634  0.1795  0.7188  0.5152
 3813SOL    HW112880   3.053   7.570   2.715  0.7388  0.7295  0.2382
 3813SOL    HW212881   3.023   7.528   2.573  1.7158  1.5121 -0.2182
 3814SOL     OW12882   0.798   5.263   4.190  0.7305 -0.1341 -0.4639
 3814SOL    HW112883   0.716   5.214   4.200  0.7569 -0.3914 -1.4600
 3814SOL    HW212884   0.820   5.254   4.098  1.7486  0.1664 -0.2548
 3815SOL     OW12885   7.326   2.225   9.465  0.1477 -0.3269  0.7280
 3815SOL    HW112886   7.391   2.282   9.505  0.0152 -0.9274  1.8327
 3815SOL    HW212887   7.255   2.219   9.529  1.0625 -3.3883  1.6440
 3816SOL     OW12888   1.373   1.974   4.297  0.2675  0.1784  0.9352
 3816SOL    HW112889   1.431   1.911   4.338  0.9064  0.7160  0.8673
 3816SOL    HW212890   1.397   1.973   4.205 -1.0458 -0.8989  0.5765
 3817SOL     OW12891   1.598   5.779   1.457  0.1726 -0.2781  0.3229
 3817SOL    HW112892   1.630   5.737   1.378  0.4212 -0.9018  0.7502
 3817SOL    HW212893   1.534   5.843   1.426 -0.1530 -0.9131 -0.3480
 3818SOL     OW12894   6.828   5.029   4.244  0.0145 -0.3690 -0.2371
 3818SOL    HW112895   6.880   5.108   4.230 -0.0512 -0.2482  0.1909
 3818SOL    HW212896   6.767   5.052   4.314 -1.4240 -0.1276 -1.5034
 3819SOL     OW12897   6.577   6.819   5.884 -0.6958 -0.5574  0.2367
 3819SOL    HW112898   6.562   6.748   5.823 -2.1119 -1.3984  1.4993
 3819SOL    HW212899   6.503   6.816   5.944  0.2308  0.7281  1.5324
 3820SOL     OW12900   3.422   5.953   1.562 -0.4811 -0.4460 -0.4014
 3820SOL    HW112901   3.408   5.942   1.468 -1.1625 -0.3277 -0.3176
 3820SOL    HW212902   3.451   5.867   1.593  0.2059 -0.3637 -0.7933
 3821SOL     OW12903   2.890   0.610   0.456  0.3667  0.1401 -0.0231
 3821SOL    HW112904   2.979   0.625   0.424  0.5446 -0.1300  0.3446
 3821SOL    HW212905   2.864   0.693   0.496  0.3817  0.2771 -0.2919
 3822SOL     OW12906   3.634   1.100   7.448 -0.2572 -0.5095 -0.2409
 3822SOL    HW112907   3.576   1.086   7.523 -1.2581  2.0468 -0.4386
 3822SOL    HW212908   3.701   1.031   7.456 -1.9136 -2.0272  1.3758
 3823SOL     OW12909   6.006   7.276   1.361  0.3325 -0.4341  0.1243
 3823SOL    HW112910   5.941   7.309   1.299  0.8176  0.8242  0.2557
 3823SOL    HW212911   6.069   7.228   1.308 -0.6072 -1.5601 -0.0219
 3824SOL     OW12912   7.364   6.821   8.866 -0.3979 -0.1244  0.3387
 3824SOL    HW112913   7.286   6.812   8.921 -0.9845 -1.4229 -0.6400
 3824SOL    HW212914   7.370   6.737   8.820  1.0321  0.3136 -0.3214
 3825SOL     OW12915   6.012   5.343  10.529 -0.4731  0.1604  0.0393
 3825SOL    HW112916   5.983   5.434  10.538  0.5711  0.3367  2.2343
 3825SOL    HW212917   6.084   5.335  10.592  0.8498 -1.6258 -1.5908
 3826SOL     OW12918   6.658   2.642   7.614 -0.0560  0.1124  0.0899
 3826SOL    HW112919   6.709   2.720   7.590  1.9156 -1.0561  0.3117
 3826SOL    HW212920   6.615   2.616   7.532  1.8761 -0.3960 -0.8183
 3827SOL     OW12921   2.647   0.095  12.414  0.4068  0.7315 -0.1683
 3827SOL    HW112922   2.640   0.175  12.361  0.4603 -0.0334 -1.3576
 3827SOL    HW212923   2.566   0.047  12.396  1.2979 -0.4604 -1.1156
 3828SOL     OW12924   0.171   6.723  11.339 -0.6867  0.5458 -0.0259
 3828SOL    HW112925   0.113   6.673  11.281 -0.3112  1.6575 -1.4025
 3828SOL    HW212926   0.130   6.809  11.345  0.3755  1.0857 -0.3568
 3829SOL     OW12927   1.062   2.114   4.892  0.0891 -0.6398 -0.6370
 3829SOL    HW112928   1.024   2.063   4.820  0.6175 -1.4431 -0.3534
 3829SOL    HW212929   1.139   2.064   4.919  1.2718  0.8711 -1.0861
 3830SOL     OW12930   6.613   0.659   3.332  0.1525 -0.3701  0.2581
 3830SOL    HW112931   6.535   0.714   3.321 -0.0772 -0.7114  0.1728
 3830SOL    HW212932   6.614   0.603   3.254  0.9257  0.1757 -0.1361
 3831SOL     OW12933   5.320   0.414   1.818  0.5798 -0.1406 -0.5744
 3831SOL    HW112934   5.379   0.408   1.894 -0.3909 -0.6167  0.1650
 3831SOL    HW212935   5.379   0.429   1.744  1.7552 -1.6048 -0.0133
 3832SOL     OW12936   3.937   4.456   0.976 -0.0249 -0.0859 -0.6217
 3832SOL    HW112937   3.859   4.511   0.986 -0.5218 -0.9028  0.2399
 3832SOL    HW212938   3.904   4.374   0.938  0.6411  0.0454 -1.5263
 3833SOL     OW12939   7.243   1.275   0.533 -0.0686 -0.0158 -0.3666
 3833SOL    HW112940   7.191   1.352   0.510 -0.3727  0.9163  2.9900
 3833SOL    HW212941   7.268   1.289   0.624  1.8527 -2.8412 -0.3352
 3834SOL     OW12942   3.120   4.130   5.479  0.2179 -0.0749  0.3387
 3834SOL    HW112943   3.095   4.177   5.399 -0.5551  0.4190  0.8501
 3834SOL    HW212944   3.043   4.078   5.501  0.6933 -0.7828  0.3640
 3835SOL     OW12945   0.416   0.951   2.517  0.0511  0.4689 -0.4615
 3835SOL    HW112946   0.336   0.901   2.499 -2.3722  2.9286  2.3163
 3835SOL    HW212947   0.478   0.886   2.550 -1.7745 -1.1643 -0.0854
 3836SOL     OW12948   6.615   4.222   9.897 -0.8347  0.1262  0.0267
 3836SOL    HW112949   6.596   4.272   9.976  0.8727  1.2920 -0.2509
 3836SOL    HW212950   6.694   4.262   9.862 -1.9915  0.1848 -2.7409
 3837SOL     OW12951   0.845   1.556   2.273 -0.4009  0.8240 -0.1098
 3837SOL    HW112952   0.934   1.572   2.245  0.0749 -0.8607  0.2986
 3837SOL    HW212953   0.791   1.613   2.218  0.8347  1.0675 -1.1045
 3838SOL     OW12954   5.501   5.619   3.836  0.5383  0.4226  0.5867
 3838SOL    HW112955   5.409   5.593   3.842  0.4276  0.1869 -1.4118
 3838SOL    HW212956   5.549   5.545   3.874  0.0127 -0.7452 -0.9478
 3839SOL     OW12957   4.129   0.210   4.813 -0.0350  0.2456  0.5851
 3839SOL    HW112958   4.118   0.115   4.823  0.0088  0.3829  2.0964
 3839SOL    HW212959   4.190   0.219   4.740  0.6471 -0.9204  0.9864
 3840SOL     OW12960   5.608   2.400   0.506 -0.2484 -0.2652 -0.3879
 3840SOL    HW112961   5.579   2.485   0.540  1.0168 -0.2272  0.6628
 3840SOL    HW212962   5.557   2.336   0.556  0.7244 -0.1756  0.7496
 3841SOL     OW12963   5.596   1.926   4.910  0.0476 -0.8497  0.1027
 3841SOL    HW112964   5.517   1.970   4.943  1.2523  0.9750  0.7070
 3841SOL    HW212965   5.655   1.923   4.985 -0.0481 -3.8868  0.1724
 3842SOL     OW12966   3.910   5.105   9.276  0.3910 -0.7623  0.9473
 3842SOL    HW112967   3.998   5.099   9.242 -0.2108 -1.6247 -0.5361
 3842SOL    HW212968   3.889   5.199   9.273  0.9596 -0.6447  0.5888
 3843SOL     OW12969   5.518   1.268   9.832  0.4969 -0.4599  0.0604
 3843SOL    HW112970   5.484   1.186   9.868 -1.6589 -0.0516 -0.8662
 3843SOL    HW212971   5.516   1.255   9.737 -1.6177  1.2325 -0.1921
 3844SOL     OW12972   6.459   6.388  12.361  0.1336  0.2650  0.7655
 3844SOL    HW112973   6.500   6.320  12.306  0.2368  0.8206  0.1400
 3844SOL    HW212974   6.506   6.468  12.339 -1.7405  1.0981 -0.5648
 3845SOL     OW12975   0.861   3.510   8.280 -1.3056 -0.2927 -0.2579
 3845SOL    HW112976   0.931   3.558   8.235 -0.8340 -0.8801 -0.1685
 3845SOL    HW212977   0.837   3.566   8.353 -0.6068 -0.2845 -0.0220
 3846SOL     OW12978   1.572   0.048   6.365  0.2944 -0.1149 -0.0016
 3846SOL    HW112979   1.644   0.080   6.419 -0.0359 -1.6722  1.4710
 3846SOL    HW212980   1.591   0.080   6.277  0.8846  2.4972  0.9880
 3847SOL     OW12981   3.728   5.451   6.446  0.4287 -0.0555  0.3021
 3847SOL    HW112982   3.682   5.465   6.528 -0.2105  2.9139 -0.4451
 3847SOL    HW212983   3.664   5.475   6.378  1.2461 -1.5044 -1.0688
 3848SOL     OW12984   1.112   3.915   1.330 -0.2691 -0.1836  0.2500
 3848SOL    HW112985   1.160   3.903   1.248  1.5457 -0.5772  1.3113
 3848SOL    HW212986   1.046   3.846   1.329 -0.8530  0.3611 -1.2507
 3849SOL     OW12987   5.282   2.366  10.140 -0.0532 -0.3640 -0.1305
 3849SOL    HW112988   5.197   2.367  10.097  0.4943 -0.0346 -1.2469
 3849SOL    HW212989   5.272   2.305  10.214 -1.1009 -0.7098 -0.5525
 3850SOL     OW12990   6.081   6.708   7.981  0.0071 -0.0505  0.6616
 3850SOL    HW112991   6.147   6.703   8.051 -0.8771 -1.1980  1.4601
 3850SOL    HW212992   6.004   6.665   8.019 -0.7660  0.0744 -0.7317
 3851SOL     OW12993   6.135   2.437   3.953  0.1565  0.3017  0.0988
 3851SOL    HW112994   6.064   2.501   3.958  0.5539  0.8009 -0.5771
 3851SOL    HW212995   6.215   2.490   3.955  0.5201 -0.2494  0.7586
 3852SOL     OW12996   6.047   2.988   9.120  0.6005 -0.2813  0.4174
 3852SOL    HW112997   6.070   2.979   9.028  0.7794 -0.6401  0.4950
 3852SOL    HW212998   6.070   2.904   9.159 -0.1557 -0.3881  0.6471
 3853SOL     OW12999   7.714   6.688   0.858  0.4128  0.4638  0.7496
 3853SOL    HW113000   7.650   6.656   0.921  1.2066  1.1888  1.9766
 3853SOL    HW213001   7.728   6.614   0.799 -3.0718  0.9253 -0.9006
 3854SOL     OW13002   3.972   7.396   4.022  0.1400 -0.4508  0.2081
 3854SOL    HW113003   3.962   7.486   3.989 -0.9308 -0.0868  1.4655
 3854SOL    HW213004   3.889   7.353   3.999 -0.5836 -0.2269  2.2310
 3855SOL     OW13005   3.128   6.698   8.978  0.4531  0.4017  0.3743
 3855SOL    HW113006   3.099   6.609   8.997 -2.3848  0.5728 -2.2627
 3855SOL    HW213007   3.150   6.696   8.884  1.3972  2.2233  0.5183
 3856SOL     OW13008   6.482   2.773   7.146  0.6192 -0.2704  0.0587
 3856SOL    HW113009   6.460   2.704   7.208  0.7764 -0.6055 -0.2600
 3856SOL    HW213010   6.540   2.831   7.195  2.1419 -1.4485 -0.2876
 3857SOL     OW13011   4.502   7.344   1.850  0.1571 -0.0715 -0.0988
 3857SOL    HW113012   4.536   7.304   1.770  0.1114  2.0657 -1.2485
 3857SOL    HW213013   4.580   7.379   1.894  0.1990 -1.3521  0.9069
 3858SOL     OW13014   0.466   5.803   6.494 -0.2045  0.0016  0.3147
 3858SOL    HW113015   0.413   5.730   6.526 -0.9710  0.2670 -0.3431
 3858SOL    HW213016   0.408   5.879   6.499  0.4272  0.4768  0.5111
 3859SOL     OW13017   1.941   7.049  10.075  0.7302  0.3343  0.5085
 3859SOL    HW113018   1.974   7.115  10.136  0.3038  0.9153  0.1195
 3859SOL    HW213019   1.957   7.086   9.988  1.4150 -0.5278  0.2588
 3860SOL     OW13020   0.129   5.813  12.371 -0.3606 -0.4367  0.0540
 3860SOL    HW113021   0.220   5.793  12.348 -0.4033  0.7144 -1.2297
 3860SOL    HW213022   0.078   5.742  12.331  0.0078 -1.8621  1.9229
 3861SOL     OW13023   4.853   6.702   0.001 -0.3472 -0.2068  0.6546
 3861SOL    HW113024   4.890   6.670   0.083  2.6594  0.7040 -0.2351
 3861SOL    HW213025   4.892   6.647  -0.067 -0.3155  1.0162 -0.3662
 3862SOL     OW13026   7.523   7.966   5.064  0.0355 -0.3017 -0.0786
 3862SOL    HW113027   7.462   8.026   5.022 -1.2048 -1.2857  0.2715
 3862SOL    HW213028   7.468   7.908   5.116  1.2389 -1.4833 -0.0773
 3863SOL     OW13029   2.843   1.022   8.212 -0.1307  0.7206 -0.2909
 3863SOL    HW113030   2.886   1.101   8.176 -1.0410  0.7517 -1.3620
 3863SOL    HW213031   2.777   1.000   8.147 -0.0807 -0.7776  0.1463
 3864SOL     OW13032   7.726   4.890   9.188  0.0127 -0.0462 -0.0437
 3864SOL    HW113033   7.646   4.852   9.225  0.5417 -1.0393  0.1113
 3864SOL    HW213034   7.746   4.964   9.245  0.8021 -1.5402  1.7118
 3865SOL     OW13035   7.057   5.817   0.340 -0.6577 -0.4182  0.4533
 3865SOL    HW113036   7.056   5.882   0.411  0.2562 -0.2424  0.3086
 3865SOL    HW213037   7.133   5.762   0.358  0.7131  0.7817 -1.4004
 3866SOL     OW13038   4.288   0.977   5.744 -0.2693  0.1019 -0.1333
 3866SOL    HW113039   4.312   0.884   5.743 -0.7419 -0.1075  2.1539
 3866SOL    HW213040   4.371   1.023   5.756  0.0332  0.0487 -1.8100
 3867SOL     OW13041   6.477   3.732   5.668 -0.2200  0.3889 -0.0636
 3867SOL    HW113042   6.498   3.726   5.575  1.2865 -1.4144  0.3205
 3867SOL    HW213043   6.549   3.783   5.706 -0.7294  0.9602  0.1354
 3868SOL     OW13044   3.185   3.376   8.590 -0.3116 -0.8434  0.3029
 3868SOL    HW113045   3.183   3.317   8.515  1.2421 -1.5914  0.7955
 3868SOL    HW213046   3.208   3.319   8.664  2.1738  0.4563  0.6545
 3869SOL     OW13047   6.551   3.376   6.406 -0.4232  0.5381 -0.3472
 3869SOL    HW113048   6.514   3.333   6.483 -0.0873  1.0383  0.1022
 3869SOL    HW213049   6.592   3.456   6.440  1.0339  0.0383 -0.8115
 3870SOL     OW13050   7.612   1.790   4.739 -0.7851  0.1882 -0.0653
 3870SOL    HW113051   7.613   1.804   4.644 -2.3395 -1.4211 -0.3819
 3870SOL    HW213052   7.544   1.723   4.752  0.8317 -1.1811  1.9636
 3871SOL     OW13053   2.481   0.728   8.159 -0.0504  0.6095 -0.3056
 3871SOL    HW113054   2.440   0.702   8.242  1.0484  0.1235  0.1057
 3871SOL    HW213055   2.492   0.823   8.166  3.2921  0.2352  1.7210
 3872SOL     OW13056   5.093   6.257   8.724 -0.0842  0.2603 -0.2514
 3872SOL    HW113057   5.030   6.327   8.741 -0.0911 -0.3343  2.8779
 3872SOL    HW213058   5.178   6.298   8.733 -0.0910  0.0341  1.1709
 3873SOL     OW13059   1.797   4.322   0.616 -0.3268  0.2009 -0.5743
 3873SOL    HW113060   1.740   4.248   0.594 -0.3644 -0.0409  0.3016
 3873SOL    HW213061   1.873   4.312   0.559  0.1626 -1.1272  0.2767
 3874SOL     OW13062   7.305   0.627   1.372  0.1338 -0.1173 -0.3021
 3874SOL    HW113063   7.354   0.623   1.454 -0.4552 -1.1698  0.0128
 3874SOL    HW213064   7.319   0.716   1.340  1.7123 -0.1915  0.1060
 3875SOL     OW13065   6.469   3.377   4.960  0.2005 -0.1800 -0.0316
 3875SOL    HW113066   6.561   3.387   4.983  0.3863  1.0092 -1.1865
 3875SOL    HW213067   6.422   3.391   5.042  0.9844  0.5167  0.3108
 3876SOL     OW13068   6.556   1.300   0.412  0.3359 -0.2107  0.0207
 3876SOL    HW113069   6.505   1.333   0.338  0.1903 -2.5526 -1.0227
 3876SOL    HW213070   6.641   1.279   0.375  0.2962 -1.3076  0.5136
 3877SOL     OW13071   1.876   6.764   7.105 -0.5969  0.1097  0.1674
 3877SOL    HW113072   1.920   6.681   7.126 -1.1656  0.1255  1.4649
 3877SOL    HW213073   1.946   6.821   7.073  0.0243 -0.4341  0.5452
 3878SOL     OW13074   3.269   0.610   2.777  0.3577 -0.2980  0.3548
 3878SOL    HW113075   3.278   0.600   2.872  1.0871  0.8653  0.4218
 3878SOL    HW213076   3.182   0.648   2.765 -0.4547 -2.0318  0.4112
 3879SOL     OW13077   5.810   7.416   1.202 -0.1181 -0.3535  0.3393
 3879SOL    HW113078   5.793   7.510   1.195  0.1155 -0.3817 -1.0167
 3879SOL    HW213079   5.763   7.378   1.127  1.4759 -1.0451 -0.3572
 3880SOL     OW13080   0.400   4.649   8.300 -0.0929 -0.1523 -0.1256
 3880SOL    HW113081   0.419   4.574   8.242 -0.3022  0.1343 -0.5677
 3880SOL    HW213082   0.452   4.720   8.264  1.6065 -0.5420  1.4037
 3881SOL     OW13083   0.402   4.610   6.434  0.7087 -0.0930 -0.6610
 3881SOL    HW113084   0.476   4.659   6.470 -0.8216  1.8848 -0.0273
 3881SOL    HW213085   0.360   4.671   6.374 -1.3314 -0.5516  0.2379
 3882SOL     OW13086   5.314   6.975   5.013 -0.4023  0.2530 -0.2294
 3882SOL    HW113087   5.293   7.001   5.103  1.2692 -1.0374  0.5992
 3882SOL    HW213088   5.275   6.888   5.004 -1.8530  0.9793 -1.3159
 3883SOL     OW13089   3.725   0.202   8.249  0.0946  0.3139  0.4747
 3883SOL    HW113090   3.708   0.193   8.342  0.9229  1.7422  0.7907
 3883SOL    HW213091   3.642   0.229   8.211  0.2161  1.6249  1.1095
 3884SOL     OW13092   3.401   0.462   6.026 -0.0929  0.1985  0.3634
 3884SOL    HW113093   3.486   0.453   6.070  0.9426  0.9284 -1.3785
 3884SOL    HW213094   3.408   0.406   5.949 -0.6369  1.3419 -0.5490
 3885SOL     OW13095   1.673   0.134   0.695 -0.1773  0.6699  0.5181
 3885SOL    HW113096   1.601   0.152   0.634  0.7402  0.3742 -0.6914
 3885SOL    HW213097   1.629   0.113   0.778 -1.4373  2.2594  0.3130
 3886SOL     OW13098   6.705   5.481   7.296 -0.6047 -0.1376  0.2110
 3886SOL    HW113099   6.653   5.402   7.306 -0.9313 -0.1611 -1.4260
 3886SOL    HW213100   6.725   5.485   7.203 -1.0880  2.0165  0.1478
 3887SOL     OW13101   4.800   2.472   7.269  0.0632 -0.2205 -0.5462
 3887SOL    HW113102   4.878   2.417   7.274  0.9445  0.9742 -0.8478
 3887SOL    HW213103   4.735   2.426   7.322  2.0001  0.4691  2.7613
 3888SOL     OW13104   4.360   1.684   0.698 -0.2105  0.7591  0.8645
 3888SOL    HW113105   4.382   1.772   0.666  0.2399  0.4676  0.3358
 3888SOL    HW213106   4.266   1.677   0.686  0.1195 -0.0110 -2.2951
 3889SOL     OW13107   4.247   1.505   0.470 -0.1460  0.1587 -0.1905
 3889SOL    HW113108   4.254   1.600   0.460  1.1821  0.1760  0.6212
 3889SOL    HW213109   4.193   1.493   0.549 -0.2082  0.2427 -0.2206
 3890SOL     OW13110   7.846   6.922   6.065  0.3888  0.0815  0.2100
 3890SOL    HW113111   7.760   6.924   6.022  0.7294  1.4545 -0.4550
 3890SOL    HW213112   7.827   6.908   6.157 -0.5048 -0.3644 -0.0317
 3891SOL     OW13113   0.888   3.632   3.198 -0.0210  0.1959 -0.0298
 3891SOL    HW113114   0.907   3.538   3.200  0.8960  0.3286 -1.3828
 3891SOL    HW213115   0.794   3.638   3.217  0.3159 -0.8086  2.2759
 3892SOL     OW13116   0.420   5.422  10.947  0.3857 -0.1445  0.0449
 3892SOL    HW113117   0.379   5.341  10.978  0.3531  0.1850  0.9031
 3892SOL    HW213118   0.376   5.491  10.996  1.3149  0.2898  0.2985
 3893SOL     OW13119   1.363   6.609  12.016  0.2338 -0.0569 -0.3848
 3893SOL    HW113120   1.443   6.571  11.979  1.1908 -0.0471  1.5535
 3893SOL    HW213121   1.317   6.534  12.054 -0.9797 -0.1394 -1.9091
 3894SOL     OW13122   4.203   1.967  11.450  0.5815  0.0826 -0.2308
 3894SOL    HW113123   4.122   2.012  11.428  0.3481 -1.0219 -1.7228
 3894SOL    HW213124   4.262   2.038  11.477 -0.1740  1.1476 -1.2752
 3895SOL     OW13125   4.976   1.169   6.986  0.1183  0.4278 -0.5730
 3895SOL    HW113126   4.895   1.179   7.035 -0.7025  2.7802 -2.2274
 3895SOL    HW213127   5.025   1.249   7.003  1.6812 -0.5092 -0.4163
 3896SOL     OW13128   0.765   2.187   3.429  0.1537 -0.0832  0.4258
 3896SOL    HW113129   0.745   2.192   3.522  0.4824  0.3041  0.4771
 3896SOL    HW213130   0.799   2.098   3.416 -0.5939 -0.3911  0.5312
 3897SOL     OW13131   4.835   3.336   7.305  0.3348  0.2441 -0.2147
 3897SOL    HW113132   4.746   3.369   7.296  1.0919  2.2351 -0.9113
 3897SOL    HW213133   4.848   3.328   7.400 -1.1577 -1.9122 -0.1197
 3898SOL     OW13134   3.906   2.553  10.560 -0.3536 -0.8638  0.4712
 3898SOL    HW113135   3.968   2.619  10.531  0.5606 -1.6259  0.6517
 3898SOL    HW213136   3.858   2.529  10.481 -2.2426  1.5460  0.7726
 3899SOL     OW13137   3.525   1.428   1.066  0.0799  0.1409  0.3284
 3899SOL    HW113138   3.461   1.416   0.996  0.4699  0.5908 -0.1081
 3899SOL    HW213139   3.576   1.504   1.040  0.3848  0.1743  0.9891
 3900SOL     OW13140   6.071   0.898   8.041 -0.7230 -0.0619 -0.1676
 3900SOL    HW113141   6.048   0.879   8.132  2.3415 -1.5579  0.4426
 3900SOL    HW213142   6.006   0.850   7.989 -0.6595 -1.8883  1.3234
 3901SOL     OW13143   0.255   1.194   1.978 -0.6922 -0.1476 -0.6645
 3901SOL    HW113144   0.342   1.182   2.016 -1.1125 -2.0365 -0.2218
 3901SOL    HW213145   0.271   1.236   1.894  0.6075 -0.0086 -0.3632
 3902SOL     OW13146   3.543   5.647   1.203 -0.3315 -0.1042 -0.4117
 3902SOL    HW113147   3.492   5.570   1.176 -2.4113  1.0470  0.0192
 3902SOL    HW213148   3.558   5.635   1.296  0.1492 -0.4029 -0.5222
 3903SOL     OW13149   0.040   1.992   8.369 -0.0325  0.1568  0.2329
 3903SOL    HW113150   0.014   1.989   8.461 -1.5110 -0.6366 -0.1727
 3903SOL    HW213151   0.130   1.960   8.368  0.3607  1.1329  1.4980
 3904SOL     OW13152   6.335   5.563   8.153 -1.1159 -0.1846 -0.1662
 3904SOL    HW113153   6.388   5.555   8.232 -0.9864  0.0013 -0.2335
 3904SOL    HW213154   6.369   5.642   8.109 -0.9292 -0.4960 -0.5956
 3905SOL     OW13155   4.751   5.715   5.783  0.1717  0.1804 -0.8582
 3905SOL    HW113156   4.689   5.788   5.779 -0.9122 -0.6100  0.7670
 3905SOL    HW213157   4.698   5.637   5.766  1.1645 -0.3222 -1.7399
 3906SOL     OW13158   0.688   3.302   8.903 -0.2080  0.7572  0.1240
 3906SOL    HW113159   0.751   3.287   8.974  3.5734  2.7623 -2.4739
 3906SOL    HW213160   0.689   3.396   8.889 -0.3469  0.3927 -2.9328
 3907SOL     OW13161   3.376   3.031   9.806 -0.6218  0.3012  0.0039
 3907SOL    HW113162   3.332   3.065   9.884 -0.1417  0.1163  0.3599
 3907SOL    HW213163   3.368   2.935   9.814 -0.1417  0.2632  0.0889
 3908SOL     OW13164   7.250   6.814   6.994  0.2390 -0.1622  0.1259
 3908SOL    HW113165   7.165   6.851   7.020 -0.3325 -0.9793 -0.5322
 3908SOL    HW213166   7.261   6.839   6.903  1.2237  0.8398  0.4955
 3909SOL     OW13167   4.292   0.706  10.453 -0.1843 -0.3325  0.0518
 3909SOL    HW113168   4.361   0.693  10.517  0.2002 -2.4878 -0.7051
 3909SOL    HW213169   4.311   0.791  10.413 -0.2045  0.8641  2.4272
 3910SOL     OW13170   7.950   1.990   6.597  0.0150  0.2579  0.1576
 3910SOL    HW113171   8.042   1.981   6.571  0.4460  1.5000  1.1241
 3910SOL    HW213172   7.954   2.030   6.684 -1.4499  0.6585  0.0641
 3911SOL     OW13173   3.182   4.076  11.627  0.1337 -0.4954 -0.2278
 3911SOL    HW113174   3.259   4.133  11.622  0.6354 -1.1689 -0.2812
 3911SOL    HW213175   3.175   4.054  11.720 -0.2836 -0.0542 -0.1489
 3912SOL     OW13176   3.328   5.202   0.805 -0.0528  0.0611  0.2667
 3912SOL    HW113177   3.272   5.143   0.855  0.5739 -1.5447 -0.8391
 3912SOL    HW213178   3.389   5.144   0.758  2.1095  1.6809  0.8834
 3913SOL     OW13179   4.416   2.145   3.695 -0.1666  0.0790  0.2509
 3913SOL    HW113180   4.440   2.056   3.671 -0.5246  0.2355 -0.7134
 3913SOL    HW213181   4.487   2.199   3.659  0.5859  0.1228  1.6994
 3914SOL     OW13182   2.912   2.370   0.616  0.0255  0.3890  0.4433
 3914SOL    HW113183   2.827   2.335   0.643  1.5973 -1.4545  3.5050
 3914SOL    HW213184   2.914   2.459   0.652  0.0916 -0.2326  2.0032
 3915SOL     OW13185   5.540   6.455   1.825  0.4154  0.2902  0.4785
 3915SOL    HW113186   5.554   6.378   1.769  0.2202  0.4588  0.2003
 3915SOL    HW213187   5.618   6.458   1.881  0.0675 -0.5752  1.0375
 3916SOL     OW13188   7.060   0.194   5.109 -0.7189  0.5763  0.4918
 3916SOL    HW113189   7.037   0.234   5.025 -0.4430  0.5875  0.4212
 3916SOL    HW213190   7.007   0.242   5.173 -0.8220  0.6653  0.3408
 3917SOL     OW13191   0.978   0.252   8.743  0.0981 -0.4569 -0.2478
 3917SOL    HW113192   0.892   0.238   8.704  0.1365 -0.2121 -0.4198
 3917SOL    HW213193   1.033   0.182   8.707 -0.6378 -2.2142  1.7950
 3918SOL     OW13194   0.765   4.954   3.709  0.3482 -0.1389  0.3565
 3918SOL    HW113195   0.779   5.046   3.688  0.2757  0.2989  2.1107
 3918SOL    HW213196   0.837   4.908   3.665  0.0509  0.6534 -1.0211
 3919SOL     OW13197   5.777   3.488  11.750 -0.1364  0.4501 -0.0807
 3919SOL    HW113198   5.704   3.525  11.799  0.4987  1.0000  0.4673
 3919SOL    HW213199   5.763   3.518  11.660 -0.9823 -0.0714 -0.1235
 3920SOL     OW13200   6.995   6.868   8.647  0.3702  0.0217 -0.0984
 3920SOL    HW113201   6.920   6.904   8.599 -0.9610  0.1251  1.9740
 3920SOL    HW213202   7.037   6.809   8.584 -1.3121  0.1146 -1.3744
 3921SOL     OW13203   7.147   3.951   8.010 -0.4207  0.1535  0.5935
 3921SOL    HW113204   7.135   3.868   7.964 -1.5856 -0.5103  2.0197
 3921SOL    HW213205   7.151   4.017   7.940 -0.0399 -1.0252 -0.5263
 3922SOL     OW13206   3.884   3.533   5.514  0.6402  0.4803  0.0028
 3922SOL    HW113207   3.924   3.459   5.559 -0.4903 -0.2642 -0.1644
 3922SOL    HW213208   3.833   3.578   5.582 -0.1005  0.0519 -0.2500
 3923SOL     OW13209   7.182   6.929   1.479  0.0801  0.6963  0.5423
 3923SOL    HW113210   7.237   7.004   1.457 -0.9093  1.3916  0.3548
 3923SOL    HW213211   7.241   6.868   1.524  0.8087  1.7740  1.1007
 3924SOL     OW13212   3.492   7.449   3.532 -0.1676  0.2451  0.1869
 3924SOL    HW113213   3.582   7.465   3.563 -0.7061  1.5573  1.1683
 3924SOL    HW213214   3.445   7.416   3.608  0.0690 -3.1784 -0.9929
 3925SOL     OW13215   1.063   4.216   6.125 -0.1270 -0.1929  0.6168
 3925SOL    HW113216   1.014   4.267   6.190  0.0220  0.6116  0.1052
 3925SOL    HW213217   1.050   4.125   6.152 -0.3352  0.1094  1.5881
 3926SOL     OW13218   0.992   6.219   7.694 -0.1184  0.5260 -0.0503
 3926SOL    HW113219   0.936   6.144   7.676 -0.8171  0.8108  0.8539
 3926SOL    HW213220   0.953   6.291   7.644 -0.1812  0.5699  0.0605
 3927SOL     OW13221   7.122   6.661   3.802 -0.4379 -0.1132  0.3813
 3927SOL    HW113222   7.104   6.611   3.881 -1.5795 -3.0516 -1.5611
 3927SOL    HW213223   7.047   6.720   3.793 -0.2418  0.3244  1.5264
 3928SOL     OW13224   2.900   7.105  10.754 -0.2078 -0.0961 -0.1074
 3928SOL    HW113225   2.888   7.134  10.844 -0.1468  0.4185 -0.2552
 3928SOL    HW213226   2.970   7.162  10.721  0.1657 -0.6607 -0.3098
 3929SOL     OW13227   0.266   0.887   7.699  0.3590 -0.3314  0.2126
 3929SOL    HW113228   0.277   0.965   7.645 -0.3490  0.4955  1.2322
 3929SOL    HW213229   0.268   0.919   7.789  0.5281 -1.5572  0.6617
 3930SOL     OW13230   3.095   1.526  11.882  0.3253  0.1358 -0.2374
 3930SOL    HW113231   3.140   1.442  11.890  0.2928  0.1658  0.2614
 3930SOL    HW213232   3.023   1.509  11.821 -0.2612 -0.4350  0.6111
 3931SOL     OW13233   3.386   7.702   7.823 -0.1625 -0.3188 -0.4460
 3931SOL    HW113234   3.462   7.704   7.765 -0.3055 -0.0665 -0.6264
 3931SOL    HW213235   3.329   7.772   7.790  0.2967  0.6449  0.7397
 3932SOL     OW13236   5.583   7.091   6.176 -0.6552 -0.4092 -0.2145
 3932SOL    HW113237   5.499   7.102   6.132  0.8859  0.7882 -3.1023
 3932SOL    HW213238   5.627   7.175   6.166  1.0554 -1.1112  0.8981
 3933SOL     OW13239   4.181   3.764   6.072 -0.1152  1.0574  0.1101
 3933SOL    HW113240   4.143   3.718   6.148 -0.0010  0.5228 -0.1487
 3933SOL    HW213241   4.118   3.833   6.052 -0.1452  1.2116  0.6953
 3934SOL     OW13242   7.627   7.679   8.850  0.0204 -0.2524  0.1988
 3934SOL    HW113243   7.541   7.652   8.881 -0.5678  0.2475 -0.9591
 3934SOL    HW213244   7.661   7.601   8.804 -0.3081 -0.0834 -0.3391
 3935SOL     OW13245   4.761   3.980   7.617  0.2453  0.3659  0.3018
 3935SOL    HW113246   4.757   3.889   7.586 -1.3193  0.9882 -1.5653
 3935SOL    HW213247   4.823   3.979   7.690  0.2788 -2.1846  0.3070
 3936SOL     OW13248   2.322   5.525   2.635 -0.5954 -0.2011  0.7381
 3936SOL    HW113249   2.276   5.485   2.561  1.3129 -2.1207  0.4972
 3936SOL    HW213250   2.259   5.520   2.708 -1.2859 -1.4783  0.0889
 3937SOL     OW13251   3.692   6.702   6.863  0.1629  0.8732 -0.4228
 3937SOL    HW113252   3.750   6.658   6.800  0.1267  0.7190 -0.3500
 3937SOL    HW213253   3.716   6.664   6.948 -0.2862  0.5463 -0.4383
 3938SOL     OW13254   1.811   2.486   3.091  0.9272  0.1072  0.5856
 3938SOL    HW113255   1.770   2.426   3.028 -2.3055  0.7683  1.8571
 3938SOL    HW213256   1.853   2.552   3.037 -0.4552 -0.1626 -0.9090
 3939SOL     OW13257   2.853   5.598   7.120 -0.3104  0.6557  0.5014
 3939SOL    HW113258   2.797   5.630   7.190 -1.0011  1.0914 -0.2383
 3939SOL    HW213259   2.811   5.629   7.040  0.6142  0.4003 -0.0929
 3940SOL     OW13260   6.450   5.104  10.773  0.1768  0.0197 -0.2556
 3940SOL    HW113261   6.464   5.118  10.679  1.9430  0.6797  0.0687
 3940SOL    HW213262   6.425   5.012  10.780 -1.1104  0.2440 -1.4616
 3941SOL     OW13263   3.300   2.719   0.779 -0.3701  0.0975  0.7656
 3941SOL    HW113264   3.352   2.666   0.720  0.4358  0.7054  0.9216
 3941SOL    HW213265   3.275   2.659   0.849 -0.8831 -0.4895  0.0972
 3942SOL     OW13266   6.459   2.088   6.752 -0.0321 -0.0566 -0.2676
 3942SOL    HW113267   6.424   2.041   6.828 -1.0577  0.2621 -0.5277
 3942SOL    HW213268   6.382   2.107   6.698  0.2082  2.5054  0.1592
 3943SOL     OW13269   2.074   5.026   8.927  0.3978 -0.5002 -0.2349
 3943SOL    HW113270   2.118   4.998   9.007  1.2953  0.2617 -0.4448
 3943SOL    HW213271   2.088   4.955   8.865  0.0706 -0.9027  0.1477
 3944SOL     OW13272   5.616   1.560   9.378  0.1020  0.4810 -0.0266
 3944SOL    HW113273   5.540   1.583   9.324 -0.3533 -1.5818 -0.3215
 3944SOL    HW213274   5.672   1.509   9.320  0.2488 -0.6069  1.0517
 3945SOL     OW13275   0.849   5.893   9.226  0.1687  1.0376 -0.0213
 3945SOL    HW113276   0.886   5.908   9.139  0.2598  0.9758  0.0077
 3945SOL    HW213277   0.925   5.889   9.284  0.0778  1.8562  0.1794
 3946SOL     OW13278   6.751   0.396   9.641  0.4016 -0.2190  0.3277
 3946SOL    HW113279   6.684   0.371   9.578 -0.6499 -0.8268  1.6417
 3946SOL    HW213280   6.787   0.478   9.607 -0.6303 -0.1667 -0.6773
 3947SOL     OW13281   6.282   6.666   2.683 -0.1818 -0.5238 -0.3377
 3947SOL    HW113282   6.328   6.605   2.625  0.3039 -0.0185 -0.4968
 3947SOL    HW213283   6.250   6.735   2.625 -0.2456 -0.3436 -0.0881
 3948SOL     OW13284   2.643   6.478   6.861 -0.1075  0.1439  0.3548
 3948SOL    HW113285   2.657   6.543   6.930  0.2060  0.9394 -0.4419
 3948SOL    HW213286   2.590   6.410   6.903  0.3808  0.4275  1.4815
 3949SOL     OW13287   2.990   7.555  12.312  0.8315 -0.0656  0.3101
 3949SOL    HW113288   3.058   7.495  12.342  1.1077  0.6835  1.2387
 3949SOL    HW213289   3.036   7.621  12.261  0.3196 -1.5440 -2.2765
 3950SOL     OW13290   1.111   3.248   1.831 -0.0965 -0.1811  0.0763
 3950SOL    HW113291   1.149   3.334   1.818 -0.6152 -0.1537 -1.4900
 3950SOL    HW213292   1.134   3.224   1.921  0.3603  1.4186  0.4033
 3951SOL     OW13293   4.287   1.541   6.587 -0.3427  0.2270  0.3625
 3951SOL    HW113294   4.340   1.515   6.511 -0.9586 -1.1406  0.3748
 3951SOL    HW213295   4.351   1.556   6.656  0.1110 -0.3653  0.0837
 3952SOL     OW13296   4.982   0.707   9.938  0.0914  0.0695 -0.1631
 3952SOL    HW113297   5.038   0.746  10.005  0.1115 -2.6733  1.5420
 3952SOL    HW213298   4.893   0.724   9.969 -0.0009  1.6268 -1.1986
 3953SOL     OW13299   0.455   7.098   1.466 -0.5438 -0.6805  0.1623
 3953SOL    HW113300   0.529   7.094   1.527  0.8436 -2.1807 -1.5142
 3953SOL    HW213301   0.445   7.191   1.446  2.1569 -0.5554 -0.9645
 3954SOL     OW13302   4.799   5.022   6.270  0.2968 -0.1027  0.3818
 3954SOL    HW113303   4.770   4.952   6.328 -0.4544 -0.3419 -0.2536
 3954SOL    HW213304   4.856   4.979   6.207 -1.4128 -0.5099 -0.9834
 3955SOL     OW13305   3.498   7.435   6.587 -0.2281  0.2060 -0.4956
 3955SOL    HW113306   3.443   7.513   6.582 -0.1513  0.5176  2.3045
 3955SOL    HW213307   3.588   7.469   6.590 -0.1051 -0.0894 -0.7193
 3956SOL     OW13308   5.119   0.514   5.992 -0.2893 -0.3410  0.0388
 3956SOL    HW113309   5.050   0.549   6.047 -0.6735 -1.4109  0.2488
 3956SOL    HW213310   5.099   0.547   5.904  1.0960  2.5385  0.6774
 3957SOL     OW13311   3.427   1.738   4.259  0.3149 -0.4825  0.2162
 3957SOL    HW113312   3.395   1.797   4.327 -0.9203 -0.0575 -0.6908
 3957SOL    HW213313   3.362   1.668   4.254  0.9982 -1.1390  0.2592
 3958SOL     OW13314   2.317   2.277   9.617  1.0884  0.4486 -0.1366
 3958SOL    HW113315   2.296   2.369   9.605  0.4998  0.6149  1.8172
 3958SOL    HW213316   2.398   2.277   9.667  0.0862 -0.0149  1.5752
 3959SOL     OW13317   5.371   6.858   3.970  0.2042 -0.5271  0.2575
 3959SOL    HW113318   5.396   6.937   3.921  0.2285 -0.3054  0.6215
 3959SOL    HW213319   5.354   6.890   4.059 -0.8382 -0.7629  0.1535
 3960SOL     OW13320   0.989   5.430   5.441  0.9532 -0.0411 -0.2135
 3960SOL    HW113321   0.907   5.474   5.419 -0.7690 -3.1022 -0.4607
 3960SOL    HW213322   1.004   5.452   5.533  0.9049  2.0241 -0.6591
 3961SOL     OW13323   4.213   1.583   8.762  0.1446 -0.5425 -0.5250
 3961SOL    HW113324   4.264   1.623   8.692  0.2251 -0.1809 -0.2602
 3961SOL    HW213325   4.125   1.620   8.752  0.4161  0.3606  0.2288
 3962SOL     OW13326   3.978   0.369   8.237 -0.9401  0.1614  0.2775
 3962SOL    HW113327   3.906   0.307   8.245  0.1743 -1.0831  1.0274
 3962SOL    HW213328   4.028   0.358   8.317  0.5412  0.4093 -0.5809
 3963SOL     OW13329   0.026   2.148   1.404  0.1059 -0.3107  0.3267
 3963SOL    HW113330   0.051   2.105   1.322 -2.2364 -0.6066 -0.3184
 3963SOL    HW213331   0.107   2.186   1.437  1.2192 -0.6141 -1.8562
 3964SOL     OW13332   3.314   2.218   2.592  0.1590 -0.2998 -0.3714
 3964SOL    HW113333   3.327   2.147   2.528  2.3948  0.3087 -0.6759
 3964SOL    HW213334   3.348   2.183   2.674 -1.7179 -0.6876  0.2923
 3965SOL     OW13335   3.593   0.585  12.418  0.1765 -0.4678  0.2880
 3965SOL    HW113336   3.593   0.599  12.512 -1.1127 -0.4820  0.3171
 3965SOL    HW213337   3.621   0.495  12.406  2.0559  0.0487  0.5254
 3966SOL     OW13338   3.699   5.997   8.505  0.1871  0.1615 -0.3377
 3966SOL    HW113339   3.642   6.018   8.430  1.3988  1.7800 -0.8502
 3966SOL    HW213340   3.723   6.082   8.541  2.0590 -0.4889  0.0362
 3967SOL     OW13341   1.199   2.672  10.768 -0.2195  0.0642 -0.3658
 3967SOL    HW113342   1.137   2.649  10.838 -0.8977  2.0648 -0.2199
 3967SOL    HW213343   1.181   2.765  10.751  0.2750 -0.2306 -2.8588
 3968SOL     OW13344   7.424   4.389   7.079  0.0847 -0.3124  0.0594
 3968SOL    HW113345   7.394   4.357   7.164 -1.7535  4.1569  1.3847
 3968SOL    HW213346   7.368   4.345   7.015 -1.4300 -0.6683  1.5531
 3969SOL     OW13347   0.850   2.118   4.413 -0.5670  0.2497 -0.5247
 3969SOL    HW113348   0.833   2.206   4.379 -1.0096  1.8197  3.2487
 3969SOL    HW213349   0.942   2.101   4.391 -1.1152  0.5673 -3.3299
 3970SOL     OW13350   5.381   2.619  11.076 -0.2605 -0.1409  0.2731
 3970SOL    HW113351   5.286   2.623  11.071 -0.2721 -0.5087  0.1975
 3970SOL    HW213352   5.400   2.595  11.167 -0.2316  0.1826  0.3538
 3971SOL     OW13353   6.561   3.397   2.946  0.3915 -0.3191 -0.0782
 3971SOL    HW113354   6.624   3.327   2.929  0.8305  0.2321 -0.7785
 3971SOL    HW213355   6.557   3.446   2.864  0.4985  0.8073  0.5746
 3972SOL     OW13356   2.006   7.118   7.316  0.1679 -0.3180 -0.5363
 3972SOL    HW113357   1.958   7.200   7.307 -0.0852 -0.0866  2.1682
 3972SOL    HW213358   1.949   7.052   7.276 -0.9825  0.3912 -0.0890
 3973SOL     OW13359   5.171   0.123   1.916 -0.2353  0.4752  0.0901
 3973SOL    HW113360   5.243   0.086   1.865 -0.0605  0.2240  0.5155
 3973SOL    HW213361   5.191   0.217   1.921  0.8215  0.2183  1.3790
 3974SOL     OW13362   6.884   0.879   8.591  0.7304 -0.1081 -0.1540
 3974SOL    HW113363   6.900   0.924   8.509  1.2148 -2.9937 -1.7641
 3974SOL    HW213364   6.953   0.813   8.597  0.8503  0.1179  2.7110
 3975SOL     OW13365   3.843   6.628   1.731  0.4330 -0.4183  0.0951
 3975SOL    HW113366   3.821   6.597   1.643  0.8599  0.3701 -0.2974
 3975SOL    HW213367   3.759   6.648   1.772  0.3081  1.0166 -0.8131
 3976SOL     OW13368   1.165   2.707   8.445  0.0993  0.0413  0.2194
 3976SOL    HW113369   1.221   2.785   8.446  1.5915 -0.9326 -1.2975
 3976SOL    HW213370   1.193   2.657   8.521  1.2812 -0.3884 -0.4713
 3977SOL     OW13371   0.670   3.529  10.981  0.0050 -0.2398 -0.3152
 3977SOL    HW113372   0.708   3.445  11.006  0.1752  0.0255  0.3191
 3977SOL    HW213373   0.580   3.508  10.954 -0.7237 -0.3363  1.9998
 3978SOL     OW13374   1.483   3.045   2.303  0.1506  0.0815  0.3278
 3978SOL    HW113375   1.549   2.987   2.343 -0.9981 -0.8908  0.8950
 3978SOL    HW213376   1.531   3.124   2.280  1.7911 -1.0812 -0.4591
 3979SOL     OW13377   1.884   2.249   5.705  0.3234  0.2766  0.4090
 3979SOL    HW113378   1.873   2.225   5.613 -2.5511 -1.8415  1.1514
 3979SOL    HW213379   1.929   2.175   5.744  2.2097  1.4895  0.6610
 3980SOL     OW13380   5.913   1.617   3.894  0.1970 -0.9100 -0.8901
 3980SOL    HW113381   5.930   1.604   3.800  0.3755  0.5315 -1.0929
 3980SOL    HW213382   5.932   1.710   3.908 -0.9778 -0.8335  0.3317
 3981SOL     OW13383   6.322   2.019   8.221  0.5279  0.1393  0.2106
 3981SOL    HW113384   6.227   2.019   8.213  0.0690  2.1447  3.6019
 3981SOL    HW213385   6.353   2.066   8.144 -1.2176 -0.2947 -0.8099
 3982SOL     OW13386   6.860   5.874   8.352  0.0591  0.3955 -0.2508
 3982SOL    HW113387   6.774   5.896   8.387  0.5448  0.9280  0.6503
 3982SOL    HW213388   6.870   5.780   8.368  0.1468  0.5697  0.8098
 3983SOL     OW13389   1.565   0.764   3.860 -0.3119 -0.4706  0.6831
 3983SOL    HW113390   1.620   0.781   3.784 -0.3253  2.2098  1.1645
 3983SOL    HW213391   1.614   0.802   3.934 -1.3248 -0.9422  1.6273
 3984SOL     OW13392   3.202   1.231   6.260 -0.1878 -0.4267  0.1813
 3984SOL    HW113393   3.250   1.197   6.335  1.1926 -0.0201 -0.4703
 3984SOL    HW213394   3.138   1.292   6.298  0.0028 -0.7659  1.0678
 3985SOL     OW13395   1.548   3.020  11.983 -0.2784  0.6838 -0.0161
 3985SOL    HW113396   1.490   2.949  12.010  0.5258  0.6190  1.6451
 3985SOL    HW213397   1.530   3.031  11.889 -1.0217 -1.1304 -0.1284
 3986SOL     OW13398   6.161   6.874   6.973 -0.3580 -0.3552  0.0836
 3986SOL    HW113399   6.108   6.931   7.029  2.6659  1.4056  1.3900
 3986SOL    HW213400   6.143   6.904   6.884 -0.3547  1.2978  0.6193
 3987SOL     OW13401   7.792   5.451  11.356 -0.1068 -0.4399 -0.1356
 3987SOL    HW113402   7.857   5.459  11.426  1.6639  1.8367 -1.8822
 3987SOL    HW213403   7.713   5.491  11.392  1.1027  1.7476  0.2614
 3988SOL     OW13404   6.820   6.202   3.627  0.4804  0.3892  0.4835
 3988SOL    HW113405   6.778   6.269   3.572  0.2510  1.8679  2.3628
 3988SOL    HW213406   6.786   6.119   3.593 -1.2529  1.3619 -0.3062
 3989SOL     OW13407   1.480   4.817  10.527 -0.2245  0.1292  0.0219
 3989SOL    HW113408   1.548   4.802  10.462 -2.2780 -3.5912 -1.5619
 3989SOL    HW213409   1.500   4.755  10.598 -0.6601  0.7369  0.6978
 3990SOL     OW13410   7.285   7.040   2.641  0.5661  0.1438  0.1314
 3990SOL    HW113411   7.341   6.984   2.587  0.6228  0.7590 -0.4707
 3990SOL    HW213412   7.346   7.102   2.682  0.7333 -1.3170  2.2345
 3991SOL     OW13413   2.964   1.159  10.278  0.5565  0.2800 -0.1701
 3991SOL    HW113414   3.006   1.187  10.359  1.7757  1.5067 -1.1848
 3991SOL    HW213415   2.870   1.165  10.297  0.8119  0.0394  1.3016
 3992SOL     OW13416   2.417   5.942   7.327  0.2120 -0.6931 -0.2373
 3992SOL    HW113417   2.375   6.008   7.382  1.8697  0.3626 -0.1803
 3992SOL    HW213418   2.344   5.894   7.288 -1.0809  1.6197 -0.8407
 3993SOL     OW13419   4.232   3.565   4.417 -0.2898 -0.1753 -0.0879
 3993SOL    HW113420   4.270   3.547   4.331 -0.0548 -0.5545  0.0920
 3993SOL    HW213421   4.270   3.498   4.475  0.4038  0.7353  0.5482
 3994SOL     OW13422   2.809   6.019   1.659  0.3469  0.0522  1.0438
 3994SOL    HW113423   2.836   6.108   1.635  1.1943  0.5117  3.3838
 3994SOL    HW213424   2.776   6.027   1.748  0.8243 -2.0430  1.4780
 3995SOL     OW13425   5.497   2.829  12.090 -0.3213  0.2423 -0.3998
 3995SOL    HW113426   5.548   2.755  12.123  0.8200  1.0518 -0.2901
 3995SOL    HW213427   5.423   2.837  12.150 -0.7018 -1.0553 -0.6578
 3996SOL     OW13428   6.319   0.372  12.237  0.0393  0.3526  0.4744
 3996SOL    HW113429   6.406   0.351  12.201  0.0190  0.0294  0.6100
 3996SOL    HW213430   6.327   0.353  12.331  0.1362  1.3216  0.6736
 3997SOL     OW13431   6.446   5.453   6.189 -0.2380  0.3793  0.0329
 3997SOL    HW113432   6.369   5.442   6.244 -0.6406 -1.2633 -0.7861
 3997SOL    HW213433   6.428   5.398   6.113  1.8241 -0.1770 -0.0919
 3998SOL     OW13434   6.715   2.667   1.449 -0.6321 -0.4113 -0.9330
 3998SOL    HW113435   6.692   2.660   1.542  0.7149  1.2127 -0.4364
 3998SOL    HW213436   6.631   2.670   1.404 -1.3900  1.4438  0.4697
 3999SOL     OW13437   4.411   3.514   7.120  0.3464 -0.4638  0.0124
 3999SOL    HW113438   4.392   3.483   7.209 -1.8500 -1.3326 -0.7022
 3999SOL    HW213439   4.353   3.463   7.064  1.1355  0.6088 -1.8685
 4000SOL     OW13440   5.304   2.703   7.829 -0.4660 -0.1700 -0.4697
 4000SOL    HW113441   5.299   2.609   7.841 -0.0296  0.1277  2.8005
 4000SOL    HW213442   5.372   2.732   7.890 -0.5725  2.2850 -1.3905
 4001SOL     OW13443   6.591   5.826   2.042 -0.3945  0.2175  0.4715
 4001SOL    HW113444   6.535   5.782   2.106 -1.5272  1.7727  0.6081
 4001SOL    HW213445   6.539   5.825   1.961  0.8086 -1.2744 -0.3453
 4002SOL     OW13446   1.957   0.757   2.479 -0.0472  0.0090  0.5286
 4002SOL    HW113447   1.966   0.686   2.415 -2.7580 -2.1237  2.2851
 4002SOL    HW213448   2.047   0.780   2.502  0.9701 -2.8215 -0.1881
 4003SOL     OW13449   0.075   5.206   2.744 -0.4050 -0.2695  0.1213
 4003SOL    HW113450   0.158   5.160   2.729 -0.2014 -0.1273  0.7554
 4003SOL    HW213451   0.086   5.245   2.831 -0.7215  0.6705 -0.2558
 4004SOL     OW13452   7.340   7.192  11.719 -0.2364 -0.7723  0.3437
 4004SOL    HW113453   7.278   7.120  11.709 -0.4928 -0.5537  0.3662
 4004SOL    HW213454   7.416   7.152  11.761 -0.1406 -1.1585 -0.1825
 4005SOL     OW13455   7.819   3.528   1.956  0.1296 -0.3658 -0.1634
 4005SOL    HW113456   7.900   3.563   1.920  0.6994 -0.7708  0.7135
 4005SOL    HW213457   7.822   3.434   1.934 -0.1194 -0.3741 -0.1649
 4006SOL     OW13458   3.142   2.983   7.761  0.1641  0.0724  0.6379
 4006SOL    HW113459   3.187   3.061   7.731 -0.7672  0.6510  0.6843
 4006SOL    HW213460   3.176   2.967   7.849 -0.3179  0.9941  1.0005
 4007SOL     OW13461   2.560   4.051  12.421  0.2961  0.2505  0.4839
 4007SOL    HW113462   2.652   4.030  12.437  0.6127  0.4467 -0.9016
 4007SOL    HW213463   2.513   4.006  12.490  1.2033 -2.4053 -0.4642
 4008SOL     OW13464   0.399   3.510   3.086 -0.1025 -0.0577 -0.1726
 4008SOL    HW113465   0.308   3.515   3.114 -0.8249 -1.4726 -2.0772
 4008SOL    HW213466   0.423   3.418   3.098  0.7742  0.1079 -0.5842
 4009SOL     OW13467   5.737   3.977   9.008 -0.0917  0.2765 -0.5604
 4009SOL    HW113468   5.777   3.994   9.093  0.6580  0.9314 -1.0337
 4009SOL    HW213469   5.788   4.029   8.946 -0.6320 -0.1818 -1.4154
 4010SOL     OW13470   5.736   5.998   5.987  0.4780 -0.3490  0.5669
 4010SOL    HW113471   5.709   5.929   6.048 -0.2024 -0.2824  0.3537
 4010SOL    HW213472   5.795   6.053   6.038  0.6501 -0.8184  0.8841
 4011SOL     OW13473   4.909   4.752   3.545  0.4840 -0.1503 -0.3569
 4011SOL    HW113474   4.820   4.778   3.522 -0.1286 -0.6433  1.3064
 4011SOL    HW213475   4.921   4.667   3.503 -1.5588 -2.2916  2.9188
 4012SOL     OW13476   7.358   2.175   7.527 -0.5155 -0.5309 -0.6721
 4012SOL    HW113477   7.292   2.231   7.567  2.0498  1.3407  1.2980
 4012SOL    HW213478   7.313   2.133   7.454 -2.9078  3.4143 -1.7599
 4013SOL     OW13479   7.263   3.396  10.713 -0.0631  0.0439  0.1170
 4013SOL    HW113480   7.354   3.393  10.686  0.1962  1.1659  0.7962
 4013SOL    HW213481   7.219   3.332  10.657  0.6205  1.4708 -2.1951
 4014SOL     OW13482   2.972   1.717  12.191  0.2382  0.0290  0.6884
 4014SOL    HW113483   3.060   1.679  12.177  0.2556  0.1933  0.3452
 4014SOL    HW213484   2.913   1.643  12.179  0.2739  0.1011  0.0319
 4015SOL     OW13485   4.790   6.363  12.446 -0.3332  0.9032 -0.1806
 4015SOL    HW113486   4.721   6.414  12.487 -1.6309 -1.6449  1.0672
 4015SOL    HW213487   4.744   6.290  12.405  1.5398 -0.4549  0.0220
 4016SOL     OW13488   6.205   4.524   6.064 -0.1749  0.3397  0.4111
 4016SOL    HW113489   6.196   4.436   6.028 -0.7089  0.8047 -0.6180
 4016SOL    HW213490   6.270   4.514   6.134  1.9756 -0.3565 -1.5398
 4017SOL     OW13491   7.937   2.939   1.059  0.3066 -0.5957 -0.2086
 4017SOL    HW113492   7.927   2.989   1.140  1.3011 -2.7496  1.3601
 4017SOL    HW213493   7.849   2.907   1.039 -0.1698  0.9844 -0.7251
 4018SOL     OW13494   6.464   2.945   5.000  0.2538 -0.1613 -0.1541
 4018SOL    HW113495   6.490   2.854   4.993 -0.3518 -0.3437 -0.1094
 4018SOL    HW213496   6.440   2.970   4.910  2.6099  0.6494 -0.6157
 4019SOL     OW13497   4.629   1.737   1.015 -0.0990  0.0763  0.0102
 4019SOL    HW113498   4.600   1.654   0.977 -0.2835  0.6706 -1.2015
 4019SOL    HW213499   4.724   1.734   1.010 -0.1291  0.4402 -1.2238
 4020SOL     OW13500   3.027   3.579   3.184 -0.2344 -0.4175 -0.0845
 4020SOL    HW113501   3.101   3.632   3.213  1.4987 -1.7768 -1.7910
 4020SOL    HW213502   3.036   3.497   3.232 -1.7967  0.0463  1.1048
 4021SOL     OW13503   6.233   7.880   8.367  0.0450  0.5036 -0.0589
 4021SOL    HW113504   6.163   7.831   8.409  0.2535 -2.0588 -2.4084
 4021SOL    HW213505   6.191   7.927   8.295  0.4954 -0.0360 -0.6968
 4022SOL     OW13506   5.830   7.932  11.372  0.3641  0.4013 -0.2024
 4022SOL    HW113507   5.833   7.890  11.286  1.7343 -0.3839  0.1961
 4022SOL    HW213508   5.738   7.957  11.383 -0.0925 -0.6548 -1.3478
 4023SOL     OW13509   2.646   6.526   3.982 -0.0611 -0.8069 -0.1886
 4023SOL    HW113510   2.668   6.439   4.016 -1.1291 -1.0822 -0.1572
 4023SOL    HW213511   2.668   6.586   4.053  0.0736 -1.1162  0.0327
 4024SOL     OW13512   3.773   5.263   0.990  0.0843  0.7239 -0.1802
 4024SOL    HW113513   3.759   5.182   0.942  1.1354  0.6281 -0.3391
 4024SOL    HW213514   3.696   5.271   1.047 -0.4403  0.0685 -0.7790
 4025SOL     OW13515   4.037   5.376   1.992  0.3167 -0.0209 -0.2225
 4025SOL    HW113516   4.079   5.378   1.906 -0.7300  0.0433 -0.7433
 4025SOL    HW213517   3.968   5.310   1.984 -0.6375  0.9056  0.1571
 4026SOL     OW13518   7.778   1.139   3.151 -0.1403 -0.3089 -0.5167
 4026SOL    HW113519   7.774   1.046   3.129  0.8495 -0.3543 -0.5404
 4026SOL    HW213520   7.729   1.182   3.080 -1.0040 -0.8288 -0.2620
 4027SOL     OW13521   0.609   4.036   7.481 -0.0705 -0.1602 -0.1285
 4027SOL    HW113522   0.655   4.114   7.512 -1.9147  1.5903 -1.4905
 4027SOL    HW213523   0.590   3.985   7.560  0.6560  1.0791  0.8730
 4028SOL     OW13524   7.593   3.818   6.263  0.2494  0.3780  0.3545
 4028SOL    HW113525   7.586   3.913   6.270 -0.5237  0.4427 -0.9520
 4028SOL    HW213526   7.676   3.803   6.217 -0.8562  0.5908 -1.8368
 4029SOL     OW13527   2.614   3.011   3.352 -0.1015 -0.4900 -0.0850
 4029SOL    HW113528   2.612   3.104   3.331  0.3809 -0.8242 -1.7355
 4029SOL    HW213529   2.530   2.977   3.320 -1.0291 -0.3606  2.0427
 4030SOL     OW13530   1.818   0.359  11.181 -0.8305 -0.9538  0.3803
 4030SOL    HW113531   1.728   0.331  11.161 -1.0146 -1.0913  1.3539
 4030SOL    HW213532   1.871   0.319  11.112 -1.6306 -0.0120 -0.8308
 4031SOL     OW13533   6.718   1.649   3.393 -0.1278 -0.6888  0.1894
 4031SOL    HW113534   6.789   1.613   3.446 -0.6286 -2.6521 -0.4191
 4031SOL    HW213535   6.748   1.738   3.372  2.4467 -1.6051 -0.4995
 4032SOL     OW13536   7.035   2.650   7.139 -0.6890  0.5369 -0.0623
 4032SOL    HW113537   7.077   2.712   7.078  0.3519 -0.9444 -0.9016
 4032SOL    HW213538   6.946   2.640   7.105  0.0465 -0.7118 -1.7554
 4033SOL     OW13539   6.936   3.654   2.855 -0.4621 -0.2114  0.1204
 4033SOL    HW113540   6.987   3.574   2.840  0.0092  0.4692 -2.5329
 4033SOL    HW213541   6.969   3.716   2.790 -3.2938  0.9357 -0.3971
 4034SOL     OW13542   4.789   1.456   3.046  0.3930 -0.6546 -0.5079
 4034SOL    HW113543   4.753   1.381   2.999  1.0593 -0.9119 -0.6145
 4034SOL    HW213544   4.718   1.520   3.046 -0.2124 -1.3138 -0.3337
 4035SOL     OW13545   6.709   7.189  12.345  0.2765 -0.5962  0.2234
 4035SOL    HW113546   6.658   7.267  12.366 -0.8825 -1.4792  0.8071
 4035SOL    HW213547   6.790   7.222  12.308 -0.7872  0.8613 -0.9006
 4036SOL     OW13548   5.696   0.156   8.569  0.0127 -0.4038  0.7176
 4036SOL    HW113549   5.690   0.101   8.647  0.7984 -0.3619  0.8110
 4036SOL    HW213550   5.619   0.131   8.517 -0.3742 -0.6135  1.3814
 4037SOL     OW13551   1.556   3.880   6.332 -0.2853 -0.9075 -0.1847
 4037SOL    HW113552   1.483   3.939   6.351  0.9695 -0.0366  2.3367
 4037SOL    HW213553   1.615   3.931   6.276 -0.2716 -0.5895  0.1182
 4038SOL     OW13554   0.236   6.117   2.985 -0.2786 -0.6835  0.1642
 4038SOL    HW113555   0.331   6.129   2.988 -0.0231 -1.3135 -2.5935
 4038SOL    HW213556   0.218   6.055   3.055  1.3180 -0.4261  0.8486
 4039SOL     OW13557   4.543   2.260  11.874 -0.5282 -0.4009 -0.5018
 4039SOL    HW113558   4.519   2.255  11.967  1.0920 -0.0322 -0.0375
 4039SOL    HW213559   4.475   2.315  11.835 -0.8170  0.0703  0.6252
 4040SOL     OW13560   4.433   6.796   1.116  0.1979  0.1303  0.5426
 4040SOL    HW113561   4.471   6.746   1.044 -1.0975 -1.2410  0.7662
 4040SOL    HW213562   4.377   6.733   1.161 -0.9549  1.6209  1.2502
 4041SOL     OW13563   1.145   4.803   4.644  0.3183  0.2212  0.5006
 4041SOL    HW113564   1.097   4.724   4.618 -0.5583 -0.2717  3.3113
 4041SOL    HW213565   1.227   4.797   4.595  0.3173 -2.4838  0.6358
 4042SOL     OW13566   2.428   2.363  10.574  0.2278  0.0540 -0.5166
 4042SOL    HW113567   2.361   2.358  10.506  0.6567 -0.3563 -0.9139
 4042SOL    HW213568   2.482   2.438  10.549  1.0035 -0.7182 -1.2092
 4043SOL     OW13569   7.148   4.600   6.992 -0.3299  0.4182  0.1453
 4043SOL    HW113570   7.130   4.595   7.086  1.3605  1.7317  0.5966
 4043SOL    HW213571   7.184   4.688   6.979  1.7126 -0.5432 -1.2988
 4044SOL     OW13572   2.147   5.153   5.388 -0.3388 -0.0452 -0.5548
 4044SOL    HW113573   2.148   5.135   5.482  2.6301  1.7453 -0.0984
 4044SOL    HW213574   2.075   5.215   5.376  0.5203  1.3355  0.9886
 4045SOL     OW13575   1.404   2.775   0.686  0.4193  0.3864  0.1143
 4045SOL    HW113576   1.393   2.684   0.714 -0.5744  0.3201 -0.4493
 4045SOL    HW213577   1.339   2.786   0.616  1.0799  1.2934 -0.3708
 4046SOL     OW13578   7.600   0.716  10.908  0.5565 -0.6036 -0.0427
 4046SOL    HW113579   7.596   0.621  10.921 -0.9236 -0.3596  1.7104
 4046SOL    HW213580   7.668   0.729  10.841  0.6440 -2.8912 -0.4641
 4047SOL     OW13581   1.808   2.393   1.776 -0.3209  0.4608 -0.1987
 4047SOL    HW113582   1.870   2.353   1.836 -0.1424 -0.4800 -0.9945
 4047SOL    HW213583   1.860   2.415   1.699 -1.1292 -1.2878 -1.2987
 4048SOL     OW13584   2.084   2.255   4.334  0.8726 -0.3294  0.6478
 4048SOL    HW113585   2.065   2.222   4.422 -2.1592  0.2130  0.2840
 4048SOL    HW213586   2.089   2.350   4.345 -1.8502 -0.0438 -0.0521
 4049SOL     OW13587   2.672   6.393  10.683  0.5178 -0.0065 -0.4369
 4049SOL    HW113588   2.681   6.300  10.663  0.8997 -0.3467  1.1872
 4049SOL    HW213589   2.728   6.437  10.619 -0.5209 -0.7820 -1.9398
 4050SOL     OW13590   5.840   7.558   7.443 -0.3203 -0.0136  0.1845
 4050SOL    HW113591   5.809   7.475   7.479  1.4852 -0.5533  0.6534
 4050SOL    HW213592   5.827   7.621   7.515 -1.2544  0.0191 -0.0029
 4051SOL     OW13593   0.846   3.071   2.617 -0.7555 -0.0014  0.4211
 4051SOL    HW113594   0.778   3.050   2.681 -0.5591 -1.8824  0.0628
 4051SOL    HW213595   0.810   3.043   2.533  0.8756 -2.1908  0.3786
 4052SOL     OW13596   1.781   4.131   8.659 -0.0133  0.6056  0.2295
 4052SOL    HW113597   1.732   4.207   8.690 -0.5617  0.4041 -0.1085
 4052SOL    HW213598   1.763   4.063   8.724  0.4840  0.7667  0.5357
 4053SOL     OW13599   4.800   6.195   3.220  0.4287 -0.0374 -0.4990
 4053SOL    HW113600   4.861   6.125   3.197  0.7496  0.2930 -0.6600
 4053SOL    HW213601   4.797   6.193   3.316  0.2736 -0.4063 -0.5086
 4054SOL     OW13602   1.683   7.027   4.604  0.7833  0.2624 -0.5119
 4054SOL    HW113603   1.593   6.998   4.592  0.9578 -0.5631  0.0826
 4054SOL    HW213604   1.686   7.114   4.563 -0.9693  1.4951  1.7811
 4055SOL     OW13605   2.805   2.430   9.283 -0.0472  0.0827  0.1326
 4055SOL    HW113606   2.851   2.514   9.276 -0.3915  0.4260  1.5845
 4055SOL    HW213607   2.851   2.384   9.353 -1.9679  0.5147  1.7811
 4056SOL     OW13608   6.695   2.607  10.455  0.3356 -0.1627 -0.0673
 4056SOL    HW113609   6.604   2.603  10.485  0.3384  0.7726  0.1010
 4056SOL    HW213610   6.725   2.694  10.481  1.3432 -0.5347  0.0514
 4057SOL     OW13611   1.583   1.156   8.239 -0.4319 -0.1728  0.5116
 4057SOL    HW113612   1.508   1.107   8.271 -0.1243 -0.7689  0.3395
 4057SOL    HW213613   1.547   1.214   8.171 -0.7347 -0.4498  0.4347
 4058SOL     OW13614   7.595   7.084  11.731 -0.3306  0.3301 -0.0365
 4058SOL    HW113615   7.592   7.070  11.636 -0.3566 -0.6639  0.1052
 4058SOL    HW213616   7.568   7.001  11.769 -0.5288  0.7859  0.8514
 4059SOL     OW13617   4.775   3.407   5.926  0.7693  0.2431 -0.2912
 4059SOL    HW113618   4.776   3.492   5.882 -2.7468  0.9524  0.6620
 4059SOL    HW213619   4.825   3.421   6.006 -0.3279  1.6976  0.1889
 4060SOL     OW13620   4.293   0.697   2.740 -0.1065 -0.4047 -0.3088
 4060SOL    HW113621   4.318   0.701   2.832  0.0561 -2.0431 -0.2407
 4060SOL    HW213622   4.331   0.615   2.709 -0.8858 -0.3003 -1.6159
 4061SOL     OW13623   0.140   0.664   8.621  0.6959 -0.1264  0.6121
 4061SOL    HW113624   0.168   0.723   8.551 -0.9916 -0.6575 -0.5847
 4061SOL    HW213625   0.218   0.615   8.645  1.5983  0.9783  0.0071
 4062SOL     OW13626   2.529   7.586   3.546 -0.1588 -0.1711  0.3490
 4062SOL    HW113627   2.603   7.615   3.600 -2.7753  0.6497  3.8911
 4062SOL    HW213628   2.503   7.502   3.584 -1.1197 -0.3852 -0.7249
 4063SOL     OW13629   2.865   5.476   7.941 -0.1866  0.4503  0.3916
 4063SOL    HW113630   2.790   5.510   7.893  0.2777  1.6524  0.4950
 4063SOL    HW213631   2.907   5.415   7.880 -0.4682  0.8171 -0.1755
 4064SOL     OW13632   3.257   3.490   5.371  0.3474  0.0487  0.1382
 4064SOL    HW113633   3.235   3.583   5.373  0.3679  0.0677 -0.3029
 4064SOL    HW213634   3.306   3.475   5.452  0.5783  0.4848  0.0836
 4065SOL     OW13635   4.503   0.176  11.991 -0.3005  0.1679  0.4856
 4065SOL    HW113636   4.513   0.093  12.037  0.1518  0.0428  0.1663
 4065SOL    HW213637   4.452   0.154  11.913  0.5171  0.0303 -0.0211
 4066SOL     OW13638   5.923   4.697   6.876 -0.8834 -0.2822  0.1983
 4066SOL    HW113639   5.841   4.665   6.913 -0.7413 -1.3031 -0.3368
 4066SOL    HW213640   5.984   4.624   6.886 -0.1143  0.3633  0.3264
 4067SOL     OW13641   6.146   4.092   1.663 -0.3017  0.0393 -0.6480
 4067SOL    HW113642   6.104   4.128   1.741  0.0738  1.9685 -1.2697
 4067SOL    HW213643   6.093   4.125   1.590  0.3145 -0.3334 -1.2766
 4068SOL     OW13644   2.480   4.550   2.682 -0.2019  0.4383  1.1727
 4068SOL    HW113645   2.422   4.611   2.637  0.7939  2.7142  2.7945
 4068SOL    HW213646   2.421   4.493   2.733 -1.0942  1.8481  1.7766
 4069SOL     OW13647   5.549   0.054  10.450  0.1027 -0.4785 -0.1988
 4069SOL    HW113648   5.531   0.138  10.409 -1.0331 -0.5271  0.1608
 4069SOL    HW213649   5.501  -0.009  10.396  0.0309 -0.7556  0.1886
 4070SOL     OW13650   4.878   7.899  10.011  0.1743  0.5251 -0.6794
 4070SOL    HW113651   4.881   7.949   9.929  0.4893  0.8953 -0.4440
 4070SOL    HW213652   4.967   7.906  10.047  0.2077 -0.1693 -0.6223
 4071SOL     OW13653   6.851   6.016  11.991 -0.0491  0.2437 -0.0420
 4071SOL    HW113654   6.803   5.981  11.916 -0.4234  0.4901  0.0795
 4071SOL    HW213655   6.937   5.975  11.986 -0.9339 -1.9036  0.9366
 4072SOL     OW13656   5.997   6.697   4.620 -0.2826  0.2817 -0.1308
 4072SOL    HW113657   5.934   6.770   4.621  0.9427  1.3705 -0.2122
 4072SOL    HW213658   5.967   6.639   4.691  0.4643  2.4136  2.0734
 4073SOL     OW13659   1.231   5.859  11.859  0.0881 -0.1963 -1.0038
 4073SOL    HW113660   1.170   5.845  11.932 -0.1725 -1.9533 -1.4934
 4073SOL    HW213661   1.261   5.949  11.869 -2.4655  0.7002 -0.6470
 4074SOL     OW13662   4.157   3.190   3.879  0.4640 -0.1084  0.1682
 4074SOL    HW113663   4.067   3.178   3.849  0.4543  0.1455  0.0906
 4074SOL    HW213664   4.167   3.285   3.886  0.6709 -0.1427  0.3451
 4075SOL     OW13665   6.608   3.105   3.337  0.2896 -0.0661 -0.2382
 4075SOL    HW113666   6.545   3.067   3.398  0.2447  1.5316  0.7639
 4075SOL    HW213667   6.556   3.168   3.286  1.1756  1.9323  1.2066
 4076SOL     OW13668   3.292   2.572   7.721 -0.2422 -0.1198 -0.2873
 4076SOL    HW113669   3.369   2.628   7.732 -0.3497 -0.4243  2.9790
 4076SOL    HW213670   3.220   2.633   7.705 -0.0079  0.5540  1.1043
 4077SOL     OW13671   2.319   2.589   9.783 -0.3623 -0.2328 -0.2345
 4077SOL    HW113672   2.242   2.607   9.836 -0.0748  2.1366 -0.5414
 4077SOL    HW213673   2.291   2.600   9.692  0.3301  0.7913 -0.3471
 4078SOL     OW13674   1.608   7.308   3.842  0.1241  0.3173 -0.1437
 4078SOL    HW113675   1.542   7.354   3.895  0.0850  0.1705 -0.0657
 4078SOL    HW213676   1.621   7.365   3.766 -0.2964  0.2105 -0.2981
 4079SOL     OW13677   4.228   5.681   2.668  0.2860  0.1421  0.0871
 4079SOL    HW113678   4.287   5.606   2.664  0.2577  0.1814 -1.3965
 4079SOL    HW213679   4.146   5.645   2.702  0.6318 -0.2460  0.5262
 4080SOL     OW13680   1.984   4.011  10.815  0.2695  0.1046  0.9748
 4080SOL    HW113681   2.044   4.073  10.774 -0.3833 -0.6499 -1.2268
 4080SOL    HW213682   2.028   3.927  10.809 -1.0266 -0.5064 -0.9015
 4081SOL     OW13683   1.022   1.244   1.875  0.3943 -0.0917  0.8454
 4081SOL    HW113684   0.972   1.214   1.799 -0.7584 -0.6522  1.7835
 4081SOL    HW213685   0.972   1.211   1.950  0.4957  1.9815  1.8920
 4082SOL     OW13686   2.200   4.241   1.168  0.1119 -0.0297 -0.4666
 4082SOL    HW113687   2.135   4.307   1.193  1.1334  1.1082 -0.7234
 4082SOL    HW213688   2.148   4.166   1.141 -1.1929  1.4499 -2.3964
 4083SOL     OW13689   6.375   7.130   7.243 -0.1258 -0.1179 -0.0424
 4083SOL    HW113690   6.373   7.040   7.210 -2.1069 -0.3683  0.6314
 4083SOL    HW213691   6.299   7.172   7.204 -0.8163  0.4340  1.7788
 4084SOL     OW13692   4.704   1.477   7.559  0.3421 -0.1109 -0.5108
 4084SOL    HW113693   4.687   1.385   7.537 -3.4174  0.0768  0.9437
 4084SOL    HW213694   4.724   1.476   7.653  1.0861  0.4911 -0.6561
 4085SOL     OW13695   3.233   6.822   8.727 -0.2732 -0.1854 -0.8560
 4085SOL    HW113696   3.152   6.800   8.681 -1.0375  1.1155 -0.1728
 4085SOL    HW213697   3.303   6.798   8.666 -1.2300  0.7717 -2.3865
 4086SOL     OW13698   7.621   1.989   8.006  0.6191  0.2353 -0.2409
 4086SOL    HW113699   7.706   2.017   7.972  0.6116  0.4287 -0.1018
 4086SOL    HW213700   7.633   1.896   8.027  0.8543  0.3091 -0.0395
 4087SOL     OW13701   7.820   1.409   8.497 -0.3563 -0.6746 -0.1180
 4087SOL    HW113702   7.756   1.369   8.439 -0.8651  0.4633 -0.3801
 4087SOL    HW213703   7.834   1.496   8.461  0.6949 -0.5933  0.4341
 4088SOL     OW13704   4.014   4.089   5.339  0.2074 -0.1955  0.4076
 4088SOL    HW113705   4.010   3.995   5.327  1.0204 -0.1868  0.0651
 4088SOL    HW213706   4.099   4.105   5.379  0.4610  0.4853 -0.3898
 4089SOL     OW13707   6.696   4.191   7.344  0.6879  0.0186 -0.2819
 4089SOL    HW113708   6.694   4.264   7.282 -0.2165  0.8699  0.7120
 4089SOL    HW213709   6.620   4.138   7.321  1.2887 -0.5896 -0.9395
 4090SOL     OW13710   5.608   6.063   7.980 -0.9588  0.3774 -0.2110
 4090SOL    HW113711   5.542   6.132   7.982 -2.2000 -0.6947 -1.6736
 4090SOL    HW213712   5.641   6.063   7.890  1.5641  1.2807  0.6044
 4091SOL     OW13713   5.056   4.042   2.487  0.2076  0.3290  0.1980
 4091SOL    HW113714   5.010   3.969   2.528  1.1579  0.1803  1.0454
 4091SOL    HW213715   5.147   4.031   2.514  0.5684  1.1835 -0.6071
 4092SOL     OW13716   3.365   6.122   6.976  0.5840 -0.3295  0.0300
 4092SOL    HW113717   3.285   6.169   7.001 -0.0260 -0.2753 -1.8842
 4092SOL    HW213718   3.406   6.099   7.059 -1.6505 -0.7559  1.0866
 4093SOL     OW13719   1.558   2.481   6.028 -0.3285 -0.7815  0.0873
 4093SOL    HW113720   1.512   2.404   6.060 -1.5174 -1.1025 -2.2291
 4093SOL    HW213721   1.489   2.544   6.008  0.5561  0.4763  0.7842
 4094SOL     OW13722   5.793   5.847  11.749  0.1923  0.5429 -0.0958
 4094SOL    HW113723   5.875   5.879  11.711 -0.0356 -1.1862 -2.2159
 4094SOL    HW213724   5.820   5.787  11.819  0.6454  1.6471  0.7198
 4095SOL     OW13725   1.938   2.124   7.417 -0.0686 -1.1016 -0.0978
 4095SOL    HW113726   1.919   2.033   7.442  1.3807 -0.8222  2.2693
 4095SOL    HW213727   2.016   2.147   7.466  1.3139  0.5681 -2.8203
 4096SOL     OW13728   4.404   2.835   0.523  0.1287  0.2401 -0.1075
 4096SOL    HW113729   4.358   2.773   0.579  2.1702 -1.3633 -0.0538
 4096SOL    HW213730   4.449   2.894   0.584 -0.1231  0.4539 -0.1261
 4097SOL     OW13731   2.481   3.388   2.236  0.0292 -0.0971 -0.0712
 4097SOL    HW113732   2.416   3.442   2.279 -0.6841 -0.6284 -0.4656
 4097SOL    HW213733   2.542   3.450   2.197 -0.0754  0.4005  0.5339
 4098SOL     OW13734   5.002   4.744   8.835 -0.3484  0.2583  0.2439
 4098SOL    HW113735   4.909   4.757   8.817 -0.2579  0.3771 -0.1507
 4098SOL    HW213736   5.004   4.675   8.901 -0.6845 -0.2670 -0.2811
 4099SOL     OW13737   0.360   2.698   7.856  0.1689  0.1822 -0.4914
 4099SOL    HW113738   0.364   2.615   7.903  1.0894 -0.7117 -2.0486
 4099SOL    HW213739   0.357   2.765   7.924 -0.1718 -1.1012  0.8009
 4100SOL     OW13740   0.813   3.276  10.013 -0.1297 -0.5147  0.1001
 4100SOL    HW113741   0.828   3.182  10.018  0.8873 -0.4267 -0.8981
 4100SOL    HW213742   0.777   3.299  10.099 -1.5009 -1.9849 -0.0411
 4101SOL     OW13743   4.172   5.144   4.695 -0.3369  0.1914  0.0874
 4101SOL    HW113744   4.142   5.063   4.735  0.1281  0.0121  0.0783
 4101SOL    HW213745   4.236   5.180   4.756 -0.6761  0.6507  0.1809
 4102SOL     OW13746   4.735   6.419   9.503  0.2173 -0.1967 -0.3404
 4102SOL    HW113747   4.690   6.457   9.579  1.4813  0.8823 -0.0989
 4102SOL    HW213748   4.735   6.488   9.438 -1.0495 -1.1914 -1.4416
 4103SOL     OW13749   4.265   0.495   9.471 -0.1132 -0.0655 -1.1044
 4103SOL    HW113750   4.325   0.440   9.422  0.6187 -0.3198  0.0473
 4103SOL    HW213751   4.233   0.439   9.542  1.7596  1.3296  0.9767
 4104SOL     OW13752   2.715   7.539   0.292  0.1646 -0.2425 -0.3231
 4104SOL    HW113753   2.776   7.467   0.308 -0.0491 -0.4352 -0.3706
 4104SOL    HW213754   2.764   7.600   0.236  0.2512 -0.4801 -0.5061
 4105SOL     OW13755   2.296   4.507   8.222  0.1817  0.1635  0.5603
 4105SOL    HW113756   2.390   4.523   8.234  0.2188 -0.5207  1.2238
 4105SOL    HW213757   2.286   4.413   8.237 -0.5579  0.1728  0.1325
 4106SOL     OW13758   0.484   0.279   1.322 -0.0792  0.0506 -0.0182
 4106SOL    HW113759   0.544   0.212   1.289  0.0835  0.6147 -0.9197
 4106SOL    HW213760   0.423   0.294   1.249 -1.8602 -1.0970  1.1597
 4107SOL     OW13761   3.008   1.859   5.112  0.1854  0.0478 -0.4021
 4107SOL    HW113762   2.986   1.843   5.020 -1.4675  1.0857 -0.2191
 4107SOL    HW213763   3.101   1.885   5.110  0.0991  0.3330 -1.8064
 4108SOL     OW13764   6.606   4.336   6.320 -0.0101  0.2869 -0.2834
 4108SOL    HW113765   6.696   4.345   6.351  0.1962  1.1702 -1.1242
 4108SOL    HW213766   6.601   4.392   6.243 -1.1883 -0.0236 -0.4466
 4109SOL     OW13767   2.275   6.186   5.429 -0.3983  0.1852  0.4811
 4109SOL    HW113768   2.261   6.143   5.513 -2.6012 -0.8766 -0.3553
 4109SOL    HW213769   2.244   6.123   5.364 -0.7548  1.8064 -0.9892
 4110SOL     OW13770   4.037   3.471   9.819  0.4058 -0.2445  0.8463
 4110SOL    HW113771   4.050   3.407   9.889  1.5054 -1.3646 -0.3332
 4110SOL    HW213772   4.120   3.470   9.770 -1.1670 -1.4945 -2.0528
 4111SOL     OW13773   1.109   2.702   2.424 -0.2024 -0.1293 -0.5999
 4111SOL    HW113774   1.088   2.758   2.349 -0.8458  0.0246 -0.3171
 4111SOL    HW213775   1.159   2.629   2.387 -0.5028 -0.0473 -1.1818
 4112SOL     OW13776   2.444   4.235  12.263 -0.3380  0.4977  0.1261
 4112SOL    HW113777   2.484   4.158  12.304 -2.2620 -1.2635 -1.1193
 4112SOL    HW213778   2.518   4.284  12.227  0.9287 -0.9129  0.6910
 4113SOL     OW13779   6.921   2.465   1.425 -0.7488 -0.1507  0.2940
 4113SOL    HW113780   6.866   2.389   1.439 -0.4922 -0.3676  0.1432
 4113SOL    HW213781   6.876   2.537   1.470 -1.5182 -0.1686 -0.4192
 4114SOL     OW13782   3.256   5.656   3.956 -0.4370 -0.0199  0.5890
 4114SOL    HW113783   3.330   5.684   3.901 -1.7446  1.0747 -0.7042
 4114SOL    HW213784   3.241   5.565   3.931 -0.4694  0.2087 -0.2429
 4115SOL     OW13785   2.109   5.661   6.456  1.2143 -0.1078 -0.0516
 4115SOL    HW113786   2.114   5.689   6.547  1.6969  0.3687 -0.2194
 4115SOL    HW213787   2.072   5.736   6.409  1.6517 -0.0773 -0.3562
 4116SOL     OW13788   1.223   4.161   9.537  0.5170  0.1695 -0.4686
 4116SOL    HW113789   1.129   4.149   9.526  0.0036  1.9051  1.3428
 4116SOL    HW213790   1.251   4.086   9.589 -0.0044 -0.0579 -0.5100
 4117SOL     OW13791   1.230   2.452   6.921  0.6278  0.1572  0.1050
 4117SOL    HW113792   1.285   2.530   6.914  0.9637 -0.1920 -1.5970
 4117SOL    HW213793   1.220   2.437   7.015  2.1123  1.1576  0.4435
 4118SOL     OW13794   0.262   0.405  11.250 -0.1888  0.1329  0.0752
 4118SOL    HW113795   0.251   0.319  11.291  0.9349  0.5275  1.2790
 4118SOL    HW213796   0.180   0.450  11.267  0.1180  0.1630  1.6694
 4119SOL     OW13797   3.300   7.723   6.863  0.5684 -0.4640  0.0766
 4119SOL    HW113798   3.226   7.663   6.868  0.7200 -0.6664 -0.0916
 4119SOL    HW213799   3.263   7.809   6.880  0.0717 -0.3904 -1.3018
 4120SOL     OW13800   4.753   5.264   0.327 -0.2288 -0.4196  0.3148
 4120SOL    HW113801   4.729   5.348   0.364 -1.0608 -0.7482  0.5379
 4120SOL    HW213802   4.795   5.216   0.399  0.8793  0.0462  0.0024
 4121SOL     OW13803   1.646   5.431  10.713 -0.8455 -0.2379 -0.1203
 4121SOL    HW113804   1.617   5.405  10.800  1.6975  1.1506  1.2686
 4121SOL    HW213805   1.625   5.356  10.657 -2.1732 -1.3424  1.7509
 4122SOL     OW13806   3.675   1.827   9.948  0.3248 -0.1892  0.2216
 4122SOL    HW113807   3.668   1.811  10.042  0.9841 -0.1151  0.2878
 4122SOL    HW213808   3.607   1.892   9.929  0.7784  0.4689  0.8087
 4123SOL     OW13809   4.664   1.997   5.941  0.0141  0.2839  0.3664
 4123SOL    HW113810   4.569   2.007   5.940  0.0552  0.7142 -0.7321
 4123SOL    HW213811   4.697   2.084   5.917  0.6186 -0.3723 -1.3474
 4124SOL     OW13812   1.818   0.383   5.274  0.0342  0.3217  0.3795
 4124SOL    HW113813   1.870   0.385   5.354  1.1383  1.0474 -0.3267
 4124SOL    HW213814   1.728   0.401   5.303  0.8314  3.6907  1.1576
 4125SOL     OW13815   6.433   7.727   1.241 -0.0384 -0.3403  0.0141
 4125SOL    HW113816   6.370   7.761   1.305  0.8246 -0.5032  0.9786
 4125SOL    HW213817   6.381   7.668   1.186 -0.9906  0.5159 -0.0244
 4126SOL     OW13818   6.534   5.946  10.439  0.0960  0.2802 -0.1796
 4126SOL    HW113819   6.604   5.921  10.501  0.3121 -0.7002 -0.8070
 4126SOL    HW213820   6.488   6.017  10.484 -0.0069 -0.6622  1.3098
 4127SOL     OW13821   7.878   3.809  10.242  0.2285  0.1322  0.3814
 4127SOL    HW113822   7.933   3.844  10.313  1.8638 -0.8375 -0.3480
 4127SOL    HW213823   7.910   3.720  10.229 -2.2533 -0.8672  0.6017
 4128SOL     OW13824   4.853   0.458  11.452  0.3631 -0.5216  0.1883
 4128SOL    HW113825   4.875   0.473  11.361  1.1358 -1.2196  0.2419
 4128SOL    HW213826   4.933   0.482  11.500  0.2733 -1.0019  0.5887
 4129SOL     OW13827   5.924   2.713  12.328 -0.4172  0.2499  0.1393
 4129SOL    HW113828   5.879   2.781  12.377 -0.9813  0.2862 -0.4189
 4129SOL    HW213829   5.868   2.636  12.336 -1.1079  0.5580 -1.3692
 4130SOL     OW13830   4.495   5.623   3.863 -0.1068  0.5719  0.0485
 4130SOL    HW113831   4.525   5.535   3.886  1.0842  0.8001 -0.5040
 4130SOL    HW213832   4.499   5.673   3.944 -1.3602 -0.0206  0.4893
 4131SOL     OW13833   2.115   1.526   3.054  0.3057 -0.2670  0.6204
 4131SOL    HW113834   2.076   1.553   3.137  0.8896 -0.9335  1.1318
 4131SOL    HW213835   2.146   1.436   3.071  1.1159 -0.1307 -0.0790
 4132SOL     OW13836   1.944   7.356  12.007  0.3018  0.9305  0.2821
 4132SOL    HW113837   1.934   7.324  12.097  0.9910  0.4010  0.1846
 4132SOL    HW213838   1.997   7.435  12.016  1.5064  0.1668  0.2597
 4133SOL     OW13839   2.926   7.759   5.005 -0.0620 -0.0938  0.8167
 4133SOL    HW113840   2.929   7.854   5.013 -1.4929 -0.0778  1.5188
 4133SOL    HW213841   2.946   7.726   5.093  2.8650 -0.5770  0.0898
 4134SOL     OW13842   2.967   0.668  11.821  0.4236  0.3963  0.3070
 4134SOL    HW113843   2.874   0.644  11.816  0.0441  1.6302  0.9823
 4134SOL    HW213844   2.977   0.706  11.908  2.0721 -1.6965  1.1153
 4135SOL     OW13845   1.264   2.773   2.731 -0.0819  0.4205 -0.0531
 4135SOL    HW113846   1.241   2.729   2.649 -2.0882 -1.0095  1.1793
 4135SOL    HW213847   1.208   2.851   2.733 -0.7023 -0.0277  0.3477
 4136SOL     OW13848   4.102   4.628   1.299  0.0791  0.5888  0.3211
 4136SOL    HW113849   4.187   4.666   1.325  0.8178 -0.0632 -1.0504
 4136SOL    HW213850   4.123   4.570   1.226 -1.2016 -1.4847  1.4959
 4137SOL     OW13851   2.731   1.329   8.039  0.6929  0.2749  0.1228
 4137SOL    HW113852   2.673   1.364   7.970 -0.2437  0.6686  1.0711
 4137SOL    HW213853   2.818   1.327   7.999  0.1155  0.1655 -1.1793
 4138SOL     OW13854   0.096   5.843   7.827 -0.0473 -0.4421  0.1688
 4138SOL    HW113855   0.035   5.813   7.760  0.7699 -2.6246  0.2890
 4138SOL    HW213856   0.171   5.783   7.819  0.5878 -0.0082  2.2364
 4139SOL     OW13857   7.846   0.169   9.296 -0.1459 -0.1045 -0.0435
 4139SOL    HW113858   7.824   0.097   9.357  0.0699  0.1563  0.3477
 4139SOL    HW213859   7.894   0.126   9.225 -1.5290 -0.6225 -0.7026
 4140SOL     OW13860   2.658   6.219   0.137 -0.4264 -0.3116 -0.3612
 4140SOL    HW113861   2.721   6.222   0.209  0.0688 -1.1016 -0.7485
 4140SOL    HW213862   2.600   6.146   0.159 -1.0370  0.2312 -0.1488
 4141SOL     OW13863   0.632   7.306   8.026  0.1172 -0.1017  0.1938
 4141SOL    HW113864   0.613   7.369   8.096 -0.1915 -0.1861  0.1865
 4141SOL    HW213865   0.664   7.228   8.072 -1.0610 -0.5292  0.3161
 4142SOL     OW13866   5.194   1.532   4.196  0.0043  0.0437 -0.3349
 4142SOL    HW113867   5.114   1.481   4.203 -0.0754  0.1350 -0.5912
 4142SOL    HW213868   5.182   1.587   4.118 -0.1767  0.9160  0.2940
 4143SOL     OW13869   2.797   5.676   5.989  0.1081 -0.0095  0.3917
 4143SOL    HW113870   2.704   5.686   6.008 -0.0187 -1.3952  0.6012
 4143SOL    HW213871   2.800   5.643   5.900  0.2809 -1.9096  1.0732
 4144SOL     OW13872   7.471   4.115   4.871  0.2215  0.0191 -0.9080
 4144SOL    HW113873   7.418   4.039   4.846  1.7825 -1.0744 -1.0457
 4144SOL    HW213874   7.530   4.128   4.797  2.7353 -1.2433  0.7575
 4145SOL     OW13875   6.030   5.601   4.941 -0.1641 -0.0244  0.2065
 4145SOL    HW113876   5.947   5.556   4.961  0.9918 -2.5368 -0.3141
 4145SOL    HW213877   6.025   5.620   4.847  0.8162 -2.5280 -0.4293
 4146SOL     OW13878   3.912   7.064   1.161 -0.5913 -0.4247 -0.0797
 4146SOL    HW113879   3.991   7.119   1.161 -1.7428  1.2776  0.4219
 4146SOL    HW213880   3.921   7.011   1.082  0.3922  0.7203 -0.7767
 4147SOL     OW13881   1.806   4.757   0.222 -0.0668 -0.0412 -0.5447
 4147SOL    HW113882   1.769   4.731   0.138  0.4015 -1.1480 -0.4315
 4147SOL    HW213883   1.823   4.674   0.267  1.9766  0.4185 -0.3655
 4148SOL     OW13884   7.619   7.867   3.370  0.0726  0.0801  0.1629
 4148SOL    HW113885   7.593   7.871   3.278 -2.1710  3.2266  0.7591
 4148SOL    HW213886   7.593   7.780   3.399 -1.8978  0.0486 -1.4844
 4149SOL     OW13887   4.396   3.183   2.774  0.0252  0.0307 -0.2091
 4149SOL    HW113888   4.321   3.232   2.740 -1.1039 -2.3042 -1.4028
 4149SOL    HW213889   4.362   3.137   2.851 -0.1385 -1.7421 -1.2637
 4150SOL     OW13890   7.555   7.507   3.187 -0.0985  0.4110 -0.2518
 4150SOL    HW113891   7.478   7.563   3.173 -0.1642 -0.0166 -1.8310
 4150SOL    HW213892   7.553   7.486   3.280 -1.2083  1.4039 -0.0301
 4151SOL     OW13893   3.978   0.692   2.945 -0.8152  0.0671  0.0043
 4151SOL    HW113894   4.016   0.776   2.920  1.3549 -1.2325 -1.3035
 4151SOL    HW213895   3.903   0.681   2.886  0.5218 -0.1019 -1.7318
 4152SOL     OW13896   4.575   4.573  10.136 -0.0253 -0.4552  0.2023
 4152SOL    HW113897   4.485   4.607  10.142 -0.4296 -0.2306 -4.1063
 4152SOL    HW213898   4.627   4.649  10.110  0.9243 -1.1350  0.0957
 4153SOL     OW13899   5.445   6.237   5.015  0.3294  0.7018  0.2754
 4153SOL    HW113900   5.438   6.173   4.945 -0.5880  1.4583 -0.3542
 4153SOL    HW213901   5.506   6.303   4.982  2.0618 -0.3157  1.3254
 4154SOL     OW13902   0.764   6.870   9.174 -0.1608  0.0204 -0.7711
 4154SOL    HW113903   0.819   6.944   9.149 -1.1036  0.7739 -0.6938
 4154SOL    HW213904   0.809   6.794   9.138  0.5406  0.6845 -1.3574
 4155SOL     OW13905   5.195   0.610   4.008 -0.0247  0.8858  0.2724
 4155SOL    HW113906   5.276   0.589   4.055  0.8499  1.0481 -1.1202
 4155SOL    HW213907   5.167   0.526   3.971 -1.0035  0.6538  1.4808
 4156SOL     OW13908   6.491   2.258   2.150  0.2035  0.3556  0.1399
 4156SOL    HW113909   6.521   2.167   2.149  1.5473  0.7373  1.8773
 4156SOL    HW213910   6.429   2.263   2.077  0.0708 -1.9448  0.0209
 4157SOL     OW13911   7.418   5.879  11.095 -0.4559  1.0812 -0.0331
 4157SOL    HW113912   7.409   5.962  11.142  1.0892  1.0076  0.4495
 4157SOL    HW213913   7.511   5.874  11.074 -1.0538  1.1454 -3.2099
 4158SOL     OW13914   6.470   6.902   4.734  0.3692  0.1561  0.1818
 4158SOL    HW113915   6.540   6.934   4.791  0.5455  1.9270 -0.9498
 4158SOL    HW213916   6.514   6.867   4.658  0.0719 -0.6314  0.3613
 4159SOL     OW13917   2.314   1.175  10.720  0.2258  0.1417 -0.2461
 4159SOL    HW113918   2.313   1.080  10.737 -0.7427  0.4435  1.6092
 4159SOL    HW213919   2.404   1.201  10.737  0.0053 -0.1181  1.5191
 4160SOL     OW13920   5.552   6.833   4.352  0.2512  0.1541 -0.1423
 4160SOL    HW113921   5.626   6.856   4.296  0.1576  3.2553  0.7789
 4160SOL    HW213922   5.475   6.858   4.302 -0.0982 -1.2291 -0.3268
 4161SOL     OW13923   0.620   6.691  10.414 -0.2325 -0.3601  0.3950
 4161SOL    HW113924   0.660   6.772  10.380 -2.3753  1.1962  1.3409
 4161SOL    HW213925   0.605   6.709  10.507 -0.5579 -1.9523  0.6747
 4162SOL     OW13926   4.865   2.834   8.032  0.0390 -0.4605  0.2106
 4162SOL    HW113927   4.902   2.747   8.023 -1.1499 -0.7678 -2.2569
 4162SOL    HW213928   4.847   2.863   7.943 -1.2008  1.6201  1.0503
 4163SOL     OW13929   5.696   6.614   6.038 -0.3137  0.3022 -0.0541
 4163SOL    HW113930   5.718   6.533   5.992  0.6670 -0.5542  1.8017
 4163SOL    HW213931   5.752   6.613   6.116 -1.7051  1.8023  1.0295
 4164SOL     OW13932   7.303   5.431   6.625 -0.0244 -0.2518 -0.7946
 4164SOL    HW113933   7.225   5.402   6.578  0.0570 -0.4142 -0.8325
 4164SOL    HW213934   7.306   5.376   6.703 -0.3769  0.2923 -0.3982
 4165SOL     OW13935   0.727   4.051   6.232 -0.0768 -0.0121 -0.6593
 4165SOL    HW113936   0.723   4.083   6.322  0.5389  0.0740 -0.6595
 4165SOL    HW213937   0.736   4.130   6.179 -0.7987 -0.0348 -0.8308
 4166SOL     OW13938   0.272   3.591   1.318 -0.4000  0.2623 -0.4061
 4166SOL    HW113939   0.353   3.629   1.351 -0.7671  0.4421  0.3019
 4166SOL    HW213940   0.301   3.525   1.255  0.3296 -0.2974  0.4879
 4167SOL     OW13941   6.636   0.883   0.289  0.1978 -0.1760  0.2182
 4167SOL    HW113942   6.669   0.884   0.378  0.6732  0.6989  0.0480
 4167SOL    HW213943   6.551   0.928   0.294  0.2812 -0.0168  0.2121
 4168SOL     OW13944   2.933   5.253   1.870 -0.3525  0.6975  0.1480
 4168SOL    HW113945   2.941   5.180   1.809  3.2219  1.4342 -0.5317
 4168SOL    HW213946   2.917   5.212   1.955 -0.8372 -0.6722 -0.5741
 4169SOL     OW13947   2.852   2.102   3.277 -0.0504  0.2670  0.0256
 4169SOL    HW113948   2.827   2.010   3.278 -1.6055  0.5600 -2.8077
 4169SOL    HW213949   2.791   2.144   3.337 -1.2858 -0.1588 -0.9057
 4170SOL     OW13950   0.507   4.743   4.726  0.3249  0.7930 -0.3754
 4170SOL    HW113951   0.435   4.705   4.675  0.6762  0.9132 -0.9576
 4170SOL    HW213952   0.562   4.787   4.662  1.3635  0.0134 -0.0524
 4171SOL     OW13953   0.564   2.380   0.061 -0.0725 -0.1974 -0.4473
 4171SOL    HW113954   0.646   2.337   0.088 -0.6458 -0.6208  0.7154
 4171SOL    HW213955   0.592   2.455   0.010  1.0417 -0.5245 -0.3500
 4172SOL     OW13956   1.910   4.879   4.332  0.7182  0.4161 -0.6254
 4172SOL    HW113957   1.903   4.832   4.415  0.2125 -0.1081 -0.9600
 4172SOL    HW213958   1.990   4.931   4.341  0.1726  1.1034  0.5524
 4173SOL     OW13959   4.516   0.102  11.508 -0.5317 -0.3112  0.4686
 4173SOL    HW113960   4.566   0.178  11.478 -2.2931  0.5862 -0.3166
 4173SOL    HW213961   4.427   0.117  11.476 -1.3441 -1.8300  1.8483
 4174SOL     OW13962   7.694   6.368   2.676  0.3832 -0.1829  0.2286
 4174SOL    HW113963   7.719   6.460   2.685  1.4888 -0.5379  0.9599
 4174SOL    HW213964   7.702   6.351   2.582  1.2564  0.1832  0.2281
 4175SOL     OW13965   1.016   6.389   8.740  0.3756 -0.8168 -0.5935
 4175SOL    HW113966   1.007   6.480   8.769 -1.1759 -1.1482  0.0429
 4175SOL    HW213967   1.105   6.385   8.703 -0.1471  1.4030 -2.3209
 4176SOL     OW13968   0.820   5.781   5.870  0.3510  0.3469 -0.2693
 4176SOL    HW113969   0.795   5.871   5.888 -0.4501  0.3250 -1.1650
 4176SOL    HW213970   0.853   5.782   5.780 -0.2847 -0.3546 -0.5261
 4177SOL     OW13971   6.010   1.202   4.423 -0.0517 -0.0590 -0.4354
 4177SOL    HW113972   5.950   1.235   4.357 -1.0170  0.2432  0.5669
 4177SOL    HW213973   6.032   1.113   4.394  0.0280  0.2858 -1.4632
 4178SOL     OW13974   5.655   6.624   8.940 -0.1371  0.3182 -0.0764
 4178SOL    HW113975   5.599   6.547   8.945 -0.0777  0.1941 -1.1747
 4178SOL    HW213976   5.737   6.593   8.904 -0.4558  1.0510 -1.5060
 4179SOL     OW13977   1.346   0.727   6.650  0.3103  0.1295  0.4912
 4179SOL    HW113978   1.266   0.764   6.686 -0.1383 -1.1018  0.8058
 4179SOL    HW213979   1.416   0.766   6.702  0.1441  2.7310 -1.0223
 4180SOL     OW13980   1.696   7.901   4.076 -0.2111  0.0381  0.5087
 4180SOL    HW113981   1.604   7.874   4.076 -0.0786 -0.4907 -0.4158
 4180SOL    HW213982   1.702   7.964   4.004 -0.2747  1.7455  1.9347
 4181SOL     OW13983   7.454   3.284   5.747  0.5560  0.1424  0.9373
 4181SOL    HW113984   7.534   3.334   5.758  1.2596 -0.0111 -2.3940
 4181SOL    HW213985   7.384   3.350   5.748  1.2409  0.9743 -0.8502
 4182SOL     OW13986   3.475   1.735   7.186 -0.3807  0.2531 -0.3427
 4182SOL    HW113987   3.408   1.669   7.167  0.2972 -1.2336  1.9871
 4182SOL    HW213988   3.543   1.720   7.120 -0.1293 -1.5937  0.2980
 4183SOL     OW13989   2.839   4.354   3.084 -0.0825  0.2043 -0.0024
 4183SOL    HW113990   2.882   4.421   3.032 -0.1573  1.0290  0.9752
 4183SOL    HW213991   2.896   4.277   3.075  0.3740  0.5975 -0.5580
 4184SOL     OW13992   1.518   3.105   0.873  0.0526 -0.3141 -0.1429
 4184SOL    HW113993   1.544   3.152   0.952  0.9995 -0.7067 -0.2029
 4184SOL    HW213994   1.454   3.162   0.830 -1.2570 -0.5547  1.4071
 4185SOL     OW13995   4.423   0.790   4.345  0.3543  0.5295  0.0610
 4185SOL    HW113996   4.340   0.742   4.336  1.8768 -1.9395 -2.4179
 4185SOL    HW213997   4.472   0.741   4.410  0.7250  0.6329 -0.1401
 4186SOL     OW13998   4.910   0.087   8.665  0.0572 -0.3545 -0.0801
 4186SOL    HW113999   4.877   0.079   8.755 -0.1150  1.6497  0.0811
 4186SOL    HW214000   4.944  -0.000   8.645 -0.1953 -0.9495  1.7999
 4187SOL     OW14001   4.305   7.899   5.897 -0.3979 -0.7058  0.0032
 4187SOL    HW114002   4.322   7.993   5.904 -0.2271 -0.7355  0.0000
 4187SOL    HW214003   4.281   7.885   5.806 -0.1633 -0.7064 -0.0580
 4188SOL     OW14004   0.188   0.234   6.679  0.3539 -0.2049  0.7326
 4188SOL    HW114005   0.258   0.275   6.729 -0.2910 -0.7335  2.1006
 4188SOL    HW214006   0.108   0.257   6.726 -0.4382  0.4279 -0.8224
 4189SOL     OW14007   2.601   5.689  10.608  0.4769 -0.4941  0.9145
 4189SOL    HW114008   2.566   5.600  10.607 -1.6637  0.2507 -1.0260
 4189SOL    HW214009   2.591   5.718  10.699 -1.5383 -1.2813  0.9941
 4190SOL     OW14010   6.561   6.047   9.915  0.6981  0.0498  0.0215
 4190SOL    HW114011   6.656   6.039   9.928  0.5486  0.8819  1.9813
 4190SOL    HW214012   6.524   6.033  10.002 -0.9421  0.4023 -0.5894
 4191SOL     OW14013   0.376   2.451   5.651 -0.1796  0.5411  0.1083
 4191SOL    HW114014   0.341   2.530   5.691  0.8985  1.5245 -0.8546
 4191SOL    HW214015   0.302   2.390   5.651 -1.4084  1.9778 -0.3208
 4192SOL     OW14016   1.591   7.590   8.088 -0.5125  0.0871  0.1715
 4192SOL    HW114017   1.656   7.660   8.086 -1.5752  1.1034 -2.1010
 4192SOL    HW214018   1.636   7.516   8.128  1.1459  1.5708  1.1818
 4193SOL     OW14019   5.618   5.031  12.030 -0.0626  0.8799 -0.1336
 4193SOL    HW114020   5.575   4.966  12.085 -0.8604  1.4001 -0.1392
 4193SOL    HW214021   5.571   5.113  12.047  0.0252  1.1602 -1.1722
 4194SOL     OW14022   0.882   4.635   8.174  0.1245 -0.2935 -0.5449
 4194SOL    HW114023   0.877   4.628   8.269 -0.9721 -1.2572 -0.6427
 4194SOL    HW214024   0.825   4.709   8.152  1.8683  1.1703 -0.3565
 4195SOL     OW14025   6.373   5.209   0.628  0.5517 -0.2010 -0.2911
 4195SOL    HW114026   6.393   5.260   0.549 -0.2058  1.5051  0.5637
 4195SOL    HW214027   6.295   5.252   0.664 -0.9649 -2.8192 -0.2297
 4196SOL     OW14028   1.886   6.972  12.390 -0.1787  0.5117  0.4691
 4196SOL    HW114029   1.929   7.054  12.414  1.7181 -0.6986  1.4783
 4196SOL    HW214030   1.858   6.985  12.299  1.9263  1.5621 -0.0855
 4197SOL     OW14031   6.973   6.590  11.967 -0.4349  0.4184  0.0554
 4197SOL    HW114032   6.994   6.497  11.967  0.5725  0.6047 -1.7953
 4197SOL    HW214033   7.050   6.632  12.004 -0.3183  0.5982 -0.3794
 4198SOL     OW14034   4.078   6.356  11.421 -0.0618 -0.0337 -0.2477
 4198SOL    HW114035   4.108   6.328  11.334  0.0518 -0.5467 -0.0492
 4198SOL    HW214036   4.046   6.275  11.461  0.8295 -0.0021  0.5673
 4199SOL     OW14037   5.725   1.749   1.815  0.0081 -0.0179 -0.5626
 4199SOL    HW114038   5.650   1.710   1.861 -0.1631 -0.5786 -1.3067
 4199SOL    HW214039   5.798   1.690   1.832 -0.2064 -0.5820 -1.5300
 4200SOL     OW14040   0.684   6.834   1.090 -0.6421  0.4402  0.1860
 4200SOL    HW114041   0.608   6.891   1.078 -1.1568 -0.3684 -0.4307
 4200SOL    HW214042   0.759   6.892   1.077 -1.1602  0.9786 -0.4529
 4201SOL     OW14043   0.380   0.409   3.043  0.3595 -0.0562 -0.1252
 4201SOL    HW114044   0.352   0.363   3.121  0.7631  0.3969  0.2936
 4201SOL    HW214045   0.461   0.454   3.069  1.3917 -1.1812 -1.2342
 4202SOL     OW14046   6.808   2.112   2.505  0.4420 -0.1445 -0.5267
 4202SOL    HW114047   6.840   2.178   2.566 -2.1849 -1.3800  2.4888
 4202SOL    HW214048   6.783   2.162   2.427 -0.5795  2.3407  1.2609
 4203SOL     OW14049   0.207   1.933   5.406 -0.3648  0.0538  0.5261
 4203SOL    HW114050   0.226   2.025   5.390  0.2115 -0.3027 -0.9658
 4203SOL    HW214051   0.182   1.930   5.498  0.0871  1.6221  0.7329
 4204SOL     OW14052   3.986   7.440  11.462  0.1361  0.3758 -0.4339
 4204SOL    HW114053   4.017   7.520  11.505 -1.5755 -0.0497  1.7942
 4204SOL    HW214054   4.061   7.381  11.463  0.2534  0.4707  1.9038
 4205SOL     OW14055   4.682   2.801   7.495 -0.3319 -0.0559 -0.4427
 4205SOL    HW114056   4.710   2.726   7.547  1.5550  0.3975 -0.7369
 4205SOL    HW214057   4.715   2.783   7.407  1.8285  1.8974 -0.1347
 4206SOL     OW14058   0.876   2.368   0.870 -0.4772 -0.0615  0.3945
 4206SOL    HW114059   0.804   2.357   0.933 -0.5770  0.6424  0.4200
 4206SOL    HW214060   0.867   2.295   0.810 -1.9190  0.6164 -0.2716
 4207SOL     OW14061   6.371   7.253   0.948  0.3471 -0.5361  0.4470
 4207SOL    HW114062   6.458   7.240   0.911  1.1424  2.0353  1.1790
 4207SOL    HW214063   6.313   7.259   0.872  1.2450  0.2591 -0.2009
 4208SOL     OW14064   3.338   3.117   1.876  0.0386 -0.1547  0.0379
 4208SOL    HW114065   3.422   3.076   1.856 -0.2844 -1.4714  1.2450
 4208SOL    HW214066   3.276   3.045   1.878 -0.5847  0.3847  2.1092
 4209SOL     OW14067   1.650   6.820  11.290  0.3577 -0.0892 -0.3469
 4209SOL    HW114068   1.576   6.826  11.230  0.5822 -2.1869 -0.9298
 4209SOL    HW214069   1.666   6.910  11.319 -0.2394  0.9071 -2.8587
 4210SOL     OW14070   3.152   1.361   8.565 -0.1300  0.3226  0.0578
 4210SOL    HW114071   3.189   1.306   8.635  2.0730 -0.2325 -1.4330
 4210SOL    HW214072   3.175   1.450   8.590  1.0475  0.0922 -0.1261
 4211SOL     OW14073   2.598   0.824   6.737 -0.2335 -0.2779 -0.4463
 4211SOL    HW114074   2.527   0.807   6.799 -0.6189  0.2810 -0.7234
 4211SOL    HW214075   2.602   0.745   6.683  0.5135 -1.0239  0.6640
 4212SOL     OW14076   1.449   7.295  10.299  0.8431 -0.2394 -0.4928
 4212SOL    HW114077   1.402   7.348  10.236 -0.8688 -1.3039 -0.1758
 4212SOL    HW214078   1.488   7.225  10.247  2.1315  0.6394 -0.7539
 4213SOL     OW14079   5.142   7.636   3.019 -0.1924 -0.1289  0.0148
 4213SOL    HW114080   5.138   7.675   2.931  1.1959  0.4128  0.1502
 4213SOL    HW214081   5.072   7.571   3.020 -0.0047 -0.4229 -1.6371
 4214SOL     OW14082   0.981   3.988   8.474 -0.2186 -0.3435  0.2884
 4214SOL    HW114083   0.999   3.961   8.384  0.7379 -4.4625  1.4794
 4214SOL    HW214084   1.067   4.009   8.510  0.0324 -2.5845  1.1789
 4215SOL     OW14085   4.680   6.245   6.259 -0.1518  0.3753 -0.3282
 4215SOL    HW114086   4.641   6.161   6.284  1.7033 -0.0084  1.5899
 4215SOL    HW214087   4.741   6.223   6.189  0.5073  0.0481  0.3338
 4216SOL     OW14088   0.928   6.989   2.206 -0.0523 -0.4736  0.7821
 4216SOL    HW114089   0.994   6.925   2.233  0.8458 -0.8682 -1.9648
 4216SOL    HW214090   0.973   7.073   2.208 -0.1957 -0.4039  1.1439
 4217SOL     OW14091   6.640   4.470  11.259 -0.1691 -0.0287  0.0806
 4217SOL    HW114092   6.581   4.545  11.251  0.3130  0.4603  0.9175
 4217SOL    HW214093   6.693   4.490  11.337  1.3707 -0.2560 -0.8663
 4218SOL     OW14094   5.375   5.370   0.675  0.5756  0.2078 -0.7710
 4218SOL    HW114095   5.311   5.426   0.718 -0.5575 -0.2080 -1.8378
 4218SOL    HW214096   5.392   5.299   0.737  0.1027  0.3991 -0.4212
 4219SOL     OW14097   5.574   4.124  12.088  0.2382 -0.1917  0.2688
 4219SOL    HW114098   5.626   4.101  12.166  0.0906  0.2627  0.5062
 4219SOL    HW214099   5.550   4.040  12.050  1.8392 -0.4186 -0.3152
 4220SOL     OW14100   1.545   3.243   7.692 -0.0367  0.3914  0.4948
 4220SOL    HW114101   1.485   3.281   7.756  0.2891  0.4789  0.7449
 4220SOL    HW214102   1.631   3.246   7.734  0.1474  0.2804  0.1272
 4221SOL     OW14103   6.362   2.845   9.604  0.4293 -0.2265  0.7914
 4221SOL    HW114104   6.316   2.925   9.579  1.2168 -0.1137 -0.3373
 4221SOL    HW214105   6.394   2.809   9.522 -0.2634 -1.9419  1.2276
 4222SOL     OW14106   4.012   0.834   3.345  0.3248 -0.6527 -0.2412
 4222SOL    HW114107   4.001   0.921   3.382  1.0083 -0.4086 -0.5899
 4222SOL    HW214108   3.964   0.776   3.404  0.9566 -0.2077  0.7469
 4223SOL     OW14109   4.305   1.333   8.634 -0.0336 -0.1264  0.0864
 4223SOL    HW114110   4.219   1.306   8.602  0.5053 -0.9032 -0.7799
 4223SOL    HW214111   4.287   1.404   8.696 -1.3483 -0.8203  0.5437
 4224SOL     OW14112   6.395   3.936   5.316  0.0008 -0.3836 -0.1436
 4224SOL    HW114113   6.470   3.880   5.333  1.2943  1.7232  1.5332
 4224SOL    HW214114   6.320   3.876   5.317  1.1981 -2.0382  2.4559
 4225SOL     OW14115   6.440   4.895  10.447  0.5788  0.5941  0.4203
 4225SOL    HW114116   6.394   4.978  10.460  0.7668  1.0446 -1.5596
 4225SOL    HW214117   6.485   4.904  10.363 -0.4972 -1.9912 -0.5591
 4226SOL     OW14118   0.514   0.737   7.368  0.2063  0.1211  0.1192
 4226SOL    HW114119   0.568   0.666   7.405  0.9828  0.4049 -0.4418
 4226SOL    HW214120   0.577   0.794   7.324 -0.5623  0.4624 -0.5559
 4227SOL     OW14121   2.034   2.954   7.618 -0.5276 -0.2164 -0.3825
 4227SOL    HW114122   2.094   3.015   7.661 -0.1163 -0.8272 -0.0701
 4227SOL    HW214123   2.039   2.977   7.525 -1.4854  1.1622 -0.1086
 4228SOL     OW14124   5.914   0.250  11.778 -0.7110  0.4768 -0.1884
 4228SOL    HW114125   5.967   0.299  11.714 -2.4964  0.4709 -1.7641
 4228SOL    HW214126   5.841   0.215  11.727 -0.3652 -2.5636  1.1904
 4229SOL     OW14127   4.617   6.704   4.193 -0.1468  0.4213  0.0543
 4229SOL    HW114128   4.651   6.615   4.197 -0.4964  0.2992  0.5624
 4229SOL    HW214129   4.678   6.756   4.246  0.3525  0.5903 -0.6776
 4230SOL     OW14130   0.195   6.433   3.062 -0.6964  0.0366  0.1741
 4230SOL    HW114131   0.144   6.399   2.989  0.8903 -1.6790 -0.1980
 4230SOL    HW214132   0.276   6.382   3.061  0.4379  1.6977  1.6047
 4231SOL     OW14133   0.862   0.121   2.764 -0.4160 -0.2738  0.0226
 4231SOL    HW114134   0.901   0.065   2.832  1.3282  0.3526 -0.3977
 4231SOL    HW214135   0.776   0.082   2.747  0.1511 -1.9514  0.7697
 4232SOL     OW14136   7.472   0.418   6.268 -0.1395 -0.2378  0.1785
 4232SOL    HW114137   7.547   0.441   6.322  2.1789 -0.8288 -2.5476
 4232SOL    HW214138   7.461   0.493   6.209 -0.4367 -0.9561 -0.6987
 4233SOL     OW14139   7.661   4.662   3.111 -0.5284 -0.5438  0.1002
 4233SOL    HW114140   7.679   4.677   3.203 -0.0459  1.0886 -0.2299
 4233SOL    HW214141   7.589   4.599   3.110 -0.6731 -0.4225  1.5841
 4234SOL     OW14142   1.462   1.083   9.866 -0.2047  0.0302 -0.3442
 4234SOL    HW114143   1.476   0.989   9.860  0.6950  0.0794  0.6170
 4234SOL    HW214144   1.368   1.094   9.858 -0.2073 -0.8242 -1.8067
 4235SOL     OW14145   3.490   6.288   4.522 -0.0626  0.0107  0.0869
 4235SOL    HW114146   3.410   6.325   4.560  2.1043  2.5117  2.7247
 4235SOL    HW214147   3.552   6.286   4.595  2.9268  0.2883 -2.2647
 4236SOL     OW14148   5.931   3.200   7.942  0.1443  0.3637 -0.1436
 4236SOL    HW114149   5.957   3.201   8.034  2.0058 -1.3018 -0.5719
 4236SOL    HW214150   5.916   3.108   7.922  2.3553  0.3198 -2.0989
 4237SOL     OW14151   3.456   0.696   4.903  0.5253 -0.4437  0.5809
 4237SOL    HW114152   3.413   0.616   4.871 -1.1929  0.5862  0.1892
 4237SOL    HW214153   3.483   0.743   4.825 -1.8199  1.0800  0.5792
 4238SOL     OW14154   3.891   0.747   7.685  0.2727 -0.8373  0.6165
 4238SOL    HW114155   3.832   0.673   7.699  1.9353 -2.3382  0.0398
 4238SOL    HW214156   3.939   0.756   7.768 -0.4649  0.1511  0.9632
 4239SOL     OW14157   4.795   2.446  10.098 -0.3573 -0.4524  0.0023
 4239SOL    HW114158   4.700   2.462  10.103 -0.2527 -0.0160  0.7206
 4239SOL    HW214159   4.829   2.517  10.044 -0.1899  0.5573  1.3763
 4240SOL     OW14160   3.720   0.083   0.134  0.6313 -0.2187  0.1460
 4240SOL    HW114161   3.634   0.102   0.172  0.7026  0.2615  0.0691
 4240SOL    HW214162   3.705   0.007   0.078 -0.4166  1.6674 -2.2776
 4241SOL     OW14163   3.113   6.011   1.015  0.0969 -0.0152  0.0633
 4241SOL    HW114164   3.072   5.955   0.948  2.7372 -0.4627 -1.3221
 4241SOL    HW214165   3.135   5.951   1.086  0.1224 -0.1550 -0.0604
 4242SOL     OW14166   5.343   0.956   8.293  0.6376  0.2850 -0.3092
 4242SOL    HW114167   5.436   0.948   8.270  0.1009 -3.0797 -1.7820
 4242SOL    HW214168   5.298   0.970   8.210 -0.2535  1.8563  0.3879
 4243SOL     OW14169   5.851   6.473  11.029  0.0355 -0.4522 -0.0891
 4243SOL    HW114170   5.794   6.493  10.955  0.2949  0.2500 -0.1085
 4243SOL    HW214171   5.905   6.551  11.039 -1.3097  0.3122  2.0583
 4244SOL     OW14172   7.395   7.032  10.933  0.3226 -0.2642 -0.2781
 4244SOL    HW114173   7.489   7.033  10.951  0.8797 -3.2151 -2.3872
 4244SOL    HW214174   7.360   6.967  10.995 -0.1902  0.1761 -0.1030
 4245SOL     OW14175   4.578   0.614   4.493  0.1792 -0.2554 -0.8733
 4245SOL    HW114176   4.572   0.527   4.532 -1.6190  0.0480 -0.3981
 4245SOL    HW214177   4.669   0.640   4.508  0.6927 -1.9344 -0.8173
 4246SOL     OW14178   2.753   3.989   3.357  0.6290 -0.1154  0.0390
 4246SOL    HW114179   2.717   4.071   3.390 -0.1867 -0.1402 -0.7505
 4246SOL    HW214180   2.745   3.996   3.262  0.2892 -1.2176 -0.0253
 4247SOL     OW14181   3.903   5.121   2.778 -0.3853 -0.5374 -0.2593
 4247SOL    HW114182   3.947   5.121   2.693 -0.7067  0.2563 -0.4280
 4247SOL    HW214183   3.907   5.212   2.808  1.7664 -1.1617  1.6499
 4248SOL     OW14184   5.801   3.396   1.723  0.5747  0.5597 -0.6786
 4248SOL    HW114185   5.850   3.327   1.678  0.6013  0.0724  0.0764
 4248SOL    HW214186   5.786   3.361   1.811 -0.3966  1.0519 -0.6387
 4249SOL     OW14187   4.651   5.585   2.877  0.1583  0.0276  0.5231
 4249SOL    HW114188   4.627   5.676   2.857 -0.0830  0.5213  2.7861
 4249SOL    HW214189   4.737   5.593   2.919  0.0156 -0.7759  0.9676
 4250SOL     OW14190   1.544   0.154  12.135  0.0902 -0.3517 -0.0860
 4250SOL    HW114191   1.533   0.248  12.153 -2.0289 -0.3625 -1.0328
 4250SOL    HW214192   1.550   0.114  12.222 -0.0439  0.5639  0.3616
 4251SOL     OW14193   3.488   4.229   1.338  0.1330  0.1528  0.1206
 4251SOL    HW114194   3.497   4.138   1.366  0.0088  0.5553  1.5538
 4251SOL    HW214195   3.452   4.224   1.249 -0.0436 -1.1876  0.2587
 4252SOL     OW14196   7.057   3.551   5.936 -0.1294 -0.3080  0.1742
 4252SOL    HW114197   7.143   3.510   5.947  0.3174  0.9456  1.6216
 4252SOL    HW214198   7.075   3.644   5.928 -1.4086  0.1627  2.0549
 4253SOL     OW14199   1.675   7.951   4.924  0.5509  0.1679  0.2102
 4253SOL    HW114200   1.730   7.898   4.866  0.6971  0.0855  0.4250
 4253SOL    HW214201   1.713   7.940   5.011 -0.7610 -1.1997  0.6490
 4254SOL     OW14202   1.291   7.263   8.135  0.2333 -0.1269  0.1895
 4254SOL    HW114203   1.334   7.183   8.165 -0.2199  0.2762  2.0411
 4254SOL    HW214204   1.332   7.333   8.187 -0.8398  0.5725  0.1193
 4255SOL     OW14205   0.657   4.376   1.828  0.4049 -0.5680  0.1964
 4255SOL    HW114206   0.621   4.288   1.831 -0.1531 -0.4816 -2.1491
 4255SOL    HW214207   0.582   4.433   1.843  0.6009 -0.4751  0.8284
 4256SOL     OW14208   5.583   1.723  11.791  0.3954 -0.3400  0.0245
 4256SOL    HW114209   5.658   1.689  11.741  1.8515  0.8647  1.2759
 4256SOL    HW214210   5.585   1.817  11.774  0.9904  0.1235  2.3252
 4257SOL     OW14211   7.956   4.584  11.610  0.2608  0.3207 -0.4690
 4257SOL    HW114212   7.863   4.604  11.598  0.2455  0.1915 -0.5722
 4257SOL    HW214213   7.966   4.496  11.572  0.1708 -0.1963  0.6440
 4258SOL     OW14214   1.091   3.551   2.321  0.2086  0.2638  0.4990
 4258SOL    HW114215   1.125   3.641   2.325 -0.8168  0.7121 -0.2974
 4258SOL    HW214216   1.166   3.499   2.291  0.6276  0.9670  0.2869
 4259SOL     OW14217   7.529   2.314   1.814 -0.1924 -0.4800 -0.0471
 4259SOL    HW114218   7.524   2.394   1.760 -1.2003  0.7743  1.7916
 4259SOL    HW214219   7.474   2.251   1.768  1.0924 -0.3773 -1.8531
 4260SOL     OW14220   2.439   0.556   9.502  0.3090  0.8086 -0.1553
 4260SOL    HW114221   2.484   0.632   9.465  1.4340  0.0697 -0.3544
 4260SOL    HW214222   2.424   0.499   9.426  2.3214 -0.5675  0.3937
 4261SOL     OW14223   3.997   2.068   8.722 -0.5735  0.2643 -0.6900
 4261SOL    HW114224   4.086   2.034   8.725  1.2936  4.4982  1.7096
 4261SOL    HW214225   3.945   2.005   8.772  1.8224 -0.6840  0.7734
 4262SOL     OW14226   5.173   0.302  11.869  0.7980  0.3531 -0.0382
 4262SOL    HW114227   5.164   0.209  11.890  0.1956  0.3279 -0.3951
 4262SOL    HW214228   5.217   0.339  11.946  0.9495 -0.2010  0.1528
 4263SOL     OW14229   4.933   1.816   5.164 -0.2928 -0.3008  0.1408
 4263SOL    HW114230   4.914   1.722   5.159 -0.4481 -0.2736  0.2265
 4263SOL    HW214231   4.987   1.826   5.242  1.8640 -0.6806 -1.1977
 4264SOL     OW14232   2.347   7.235   0.061 -0.5657  0.0004  0.0841
 4264SOL    HW114233   2.407   7.166   0.091 -1.1842 -1.3656 -1.6210
 4264SOL    HW214234   2.260   7.197   0.070 -1.3053  2.0423  2.7242
 4265SOL     OW14235   1.538   3.936   9.896  0.0201  0.3698 -0.2968
 4265SOL    HW114236   1.519   3.887   9.976 -1.6453  1.2150 -0.1333
 4265SOL    HW214237   1.569   4.021   9.927 -1.7672  1.1358 -0.4815
 4266SOL     OW14238   1.950   7.132   4.419  0.0669  0.1102 -0.0233
 4266SOL    HW114239   2.000   7.207   4.451 -0.5594  0.3484  0.4025
 4266SOL    HW214240   1.893   7.167   4.351  1.6458 -0.4513 -1.7504
 4267SOL     OW14241   2.762   6.141  10.612  0.4290  0.0829 -0.0664
 4267SOL    HW114242   2.692   6.104  10.666  0.1534 -1.3810 -1.3559
 4267SOL    HW214243   2.835   6.080  10.622  0.8883  0.5981 -0.2050
 4268SOL     OW14244   1.416   1.036   7.973 -0.0367 -0.2751 -0.2689
 4268SOL    HW114245   1.460   1.121   7.986  1.1688 -1.0273  0.8692
 4268SOL    HW214246   1.457   1.000   7.894  0.2083 -0.2516 -0.1532
 4269SOL     OW14247   4.405   4.990   8.191 -0.0172  0.5658  0.6918
 4269SOL    HW114248   4.378   4.972   8.281 -1.8440  0.2682  0.1206
 4269SOL    HW214249   4.374   5.079   8.174  2.3141  1.5292  1.0349
 4270SOL     OW14250   0.740   6.053   1.546  0.2901 -0.0851  0.1810
 4270SOL    HW114251   0.743   6.016   1.458  1.6565  1.4899 -0.4954
 4270SOL    HW214252   0.789   5.991   1.600 -0.5366 -1.0488 -0.1421
 4271SOL     OW14253   1.399   3.038   0.137  0.0919 -0.6229 -0.7353
 4271SOL    HW114254   1.418   2.949   0.165  0.8234  0.0368  0.9879
 4271SOL    HW214255   1.446   3.048   0.054  0.8836 -1.4868 -0.4011
 4272SOL     OW14256   5.015   0.511  11.821  0.9426  1.2817 -0.0683
 4272SOL    HW114257   5.046   0.533  11.734  0.8673 -0.1071 -0.4618
 4272SOL    HW214258   5.030   0.417  11.830 -0.7544  1.0382  0.6986
 4273SOL     OW14259   0.455   3.803   8.108 -0.2795  0.6331 -0.5096
 4273SOL    HW114260   0.462   3.715   8.144 -2.9131  0.3742 -0.4777
 4273SOL    HW214261   0.507   3.857   8.167  2.1935 -0.9509 -1.0602
 4274SOL     OW14262   4.845   5.559   9.397  0.7087  0.4750 -0.0474
 4274SOL    HW114263   4.844   5.652   9.374  1.5467  0.3013 -0.8443
 4274SOL    HW214264   4.936   5.533   9.387  0.8400 -0.0146  1.9657
 4275SOL     OW14265   6.448   4.495   1.324  0.0547 -0.1653 -0.1558
 4275SOL    HW114266   6.434   4.469   1.233  0.8249  0.2032 -0.3903
 4275SOL    HW214267   6.489   4.581   1.319 -0.4385  0.1280  0.5609
 4276SOL     OW14268   6.637   1.877   5.844  0.7766  0.0407 -0.2118
 4276SOL    HW114269   6.696   1.943   5.808 -0.4284  1.3034  0.0030
 4276SOL    HW214270   6.581   1.927   5.905 -0.0128 -1.2339  0.1435
 4277SOL     OW14271   1.078   0.340   4.749  0.1606  0.1702  0.2042
 4277SOL    HW114272   1.157   0.312   4.796  0.7022  1.0934 -0.1397
 4277SOL    HW214273   1.092   0.433   4.733 -1.8248  0.7991  1.7636
 4278SOL     OW14274   2.265   0.622   5.897 -0.1369 -0.6115 -0.2462
 4278SOL    HW114275   2.245   0.589   5.809  1.4011 -0.1917 -0.7779
 4278SOL    HW214276   2.238   0.714   5.895  1.5796 -0.0888 -0.9118
 4279SOL     OW14277   1.464   0.023   7.254  0.1080 -0.2240  0.4816
 4279SOL    HW114278   1.474   0.097   7.313  1.2232 -0.1494  0.2341
 4279SOL    HW214279   1.475  -0.054   7.310  0.4185 -0.1683  0.4991
 4280SOL     OW14280   3.803   5.042   7.157 -0.6083  0.7399 -0.3037
 4280SOL    HW114281   3.835   5.081   7.238  0.4106  1.8249 -1.1848
 4280SOL    HW214282   3.847   4.957   7.152 -0.8112  0.5918  0.3537
 4281SOL     OW14283   3.972   5.978  12.069 -0.0865  0.7164  0.6478
 4281SOL    HW114284   4.001   6.065  12.098 -1.1404  1.8607 -1.5388
 4281SOL    HW214285   4.008   5.969  11.980 -0.0467 -1.0914  0.8083
 4282SOL     OW14286   0.920   1.921  10.887 -0.2734  0.4909 -0.0376
 4282SOL    HW114287   0.840   1.894  10.932 -0.7057 -2.8045 -2.4761
 4282SOL    HW214288   0.896   2.002  10.841 -0.8554  1.8735  2.5123
 4283SOL     OW14289   2.091   6.575   2.155  0.1175  0.1802  0.2230
 4283SOL    HW114290   2.173   6.590   2.109 -0.1026 -0.0497 -0.2498
 4283SOL    HW214291   2.063   6.488   2.127 -0.8925  0.7336 -0.5561
 4284SOL     OW14292   3.127   6.832   7.993 -0.6188 -0.3603  0.1654
 4284SOL    HW114293   3.165   6.756   8.036  0.1569 -0.3970 -0.5515
 4284SOL    HW214294   3.149   6.906   8.049  0.4192 -0.4007 -0.1624
 4285SOL     OW14295   3.373   5.210  12.259  0.5481  0.1647  0.3395
 4285SOL    HW114296   3.417   5.178  12.180 -0.2588  0.9652 -0.4666
 4285SOL    HW214297   3.437   5.267  12.301  0.2533  1.4869 -0.9276
 4286SOL     OW14298   7.327   6.258   1.081  0.5925  0.5126  0.2092
 4286SOL    HW114299   7.277   6.269   1.162 -0.9085  0.6299 -0.7037
 4286SOL    HW214300   7.413   6.228   1.110 -0.3742 -0.9134  1.7573
 4287SOL     OW14301   6.133   1.018   0.834 -0.1237 -0.3957  0.0660
 4287SOL    HW114302   6.191   1.016   0.910 -1.5722  1.0390  1.3144
 4287SOL    HW214303   6.066   0.952   0.853 -0.4425 -0.0908  0.0303
 4288SOL     OW14304   4.737   7.067   6.424 -0.0022 -0.2547 -0.2647
 4288SOL    HW114305   4.736   7.057   6.329 -2.9613 -0.1190 -0.3496
 4288SOL    HW214306   4.713   6.980   6.457 -1.4244  0.2790  0.1888
 4289SOL     OW14307   6.022   4.750   8.190 -0.1575 -0.1240 -0.2547
 4289SOL    HW114308   5.968   4.726   8.114 -1.2753  0.5556  0.2889
 4289SOL    HW214309   5.974   4.716   8.265  0.0701  0.6584  0.2628
 4290SOL     OW14310   5.322   7.001   4.207  0.0849  0.3946  0.0373
 4290SOL    HW114311   5.245   6.994   4.262 -0.5235  0.9787 -0.7098
 4290SOL    HW214312   5.361   7.086   4.230 -0.0458  0.5390 -0.2622
 4291SOL     OW14313   7.591   2.199   2.539 -0.1374 -0.1134  0.6038
 4291SOL    HW114314   7.504   2.231   2.515 -0.2017 -0.7594 -0.0597
 4291SOL    HW214315   7.638   2.277   2.567 -0.9349  0.2378  0.9762
 4292SOL     OW14316   3.899   1.217   4.387  0.3660 -0.7835  0.5586
 4292SOL    HW114317   3.835   1.154   4.421 -2.1797  0.5556 -1.4140
 4292SOL    HW214318   3.876   1.228   4.295  1.4226  2.1369  0.5264
 4293SOL     OW14319   0.816   1.961   7.538  0.3936  0.0837  0.0869
 4293SOL    HW114320   0.726   1.934   7.558  0.4073  0.5916  0.8980
 4293SOL    HW214321   0.867   1.926   7.611  0.9638 -0.8100 -0.7404
 4294SOL     OW14322   6.696   3.587   2.439 -0.3207  0.0248 -0.0723
 4294SOL    HW114323   6.691   3.499   2.402  0.7813  0.0216 -0.2504
 4294SOL    HW214324   6.787   3.613   2.428 -0.3482  0.7067  1.1028
 4295SOL     OW14325   7.435   1.329   9.552 -0.0576 -0.3160  0.2264
 4295SOL    HW114326   7.516   1.352   9.507  0.8592 -1.9416  0.9350
 4295SOL    HW214327   7.461   1.263   9.616 -1.7285  0.1122  1.4236
 4296SOL     OW14328   3.440   2.308   5.010  0.6500 -0.4198 -0.3639
 4296SOL    HW114329   3.368   2.372   5.007 -0.1973 -1.0753  2.6364
 4296SOL    HW214330   3.519   2.361   4.998 -0.1657  0.8091 -0.5448
 4297SOL     OW14331   7.292   3.836   5.162 -0.3283  0.7211 -0.1179
 4297SOL    HW114332   7.216   3.874   5.117  0.4576  0.5405 -1.6621
 4297SOL    HW214333   7.363   3.842   5.098  0.5445 -0.6481  0.6895
 4298SOL     OW14334   5.885   7.391   7.113  0.2604  0.1455 -0.0158
 4298SOL    HW114335   5.855   7.482   7.119 -0.9754 -0.0824 -1.9615
 4298SOL    HW214336   5.822   7.342   7.166  0.0496  0.2470 -0.1706
 4299SOL     OW14337   4.543   0.716   6.353 -0.0481 -0.1023  0.0856
 4299SOL    HW114338   4.542   0.639   6.409  1.4083  0.9064  1.5964
 4299SOL    HW214339   4.472   0.771   6.385 -0.4963 -0.4023 -0.3852
 4300SOL     OW14340   0.167   1.231   8.748  0.4010  0.0698  0.1483
 4300SOL    HW114341   0.167   1.150   8.799 -0.1813  0.9769  1.6621
 4300SOL    HW214342   0.258   1.262   8.754  0.5830 -0.3615 -0.2833
 4301SOL     OW14343   3.884   0.977  11.909 -0.0982  0.4308  0.4466
 4301SOL    HW114344   3.934   0.966  11.991  1.2310 -1.2292 -0.5201
 4301SOL    HW214345   3.885   0.891  11.869 -1.0656  1.1274 -1.1582
 4302SOL     OW14346   1.448   3.890  11.766 -0.2033 -0.2704 -0.1421
 4302SOL    HW114347   1.388   3.915  11.837 -0.5205 -0.9950 -0.1361
 4302SOL    HW214348   1.470   3.972  11.723 -0.0190  0.1852  0.7884
 4303SOL     OW14349   1.354   0.149   1.779  0.3013 -0.3771 -0.1058
 4303SOL    HW114350   1.431   0.162   1.723  2.1006 -2.1058  1.7972
 4303SOL    HW214351   1.306   0.077   1.738  1.6371 -1.6760  0.5214
 4304SOL     OW14352   6.713   0.352  11.242  0.4406 -0.3332 -0.5644
 4304SOL    HW114353   6.629   0.359  11.286  0.7132 -2.0240  0.3167
 4304SOL    HW214354   6.724   0.258  11.227  3.9336 -0.7531  2.9598
 4305SOL     OW14355   1.861   0.061   2.845  0.3238 -0.9496  0.5331
 4305SOL    HW114356   1.817   0.109   2.775  0.3098  1.6109  2.1836
 4305SOL    HW214357   1.954   0.062   2.821  0.0361 -2.8389 -0.9237
 4306SOL     OW14358   3.412   5.007   4.820  0.0064  0.4999 -0.3965
 4306SOL    HW114359   3.481   5.045   4.874 -0.6037  0.8800  0.1290
 4306SOL    HW214360   3.331   5.046   4.854 -0.5703 -0.7567 -0.3042
 4307SOL     OW14361   3.487   0.223   0.559 -0.4471 -0.1645  0.2211
 4307SOL    HW114362   3.427   0.209   0.485 -1.2193 -0.3456  0.8742
 4307SOL    HW214363   3.438   0.280   0.618  0.1611 -0.0479  0.6096
 4308SOL     OW14364   0.994   1.145   4.988  0.2671 -0.3961  0.6103
 4308SOL    HW114365   0.969   1.235   4.967  0.9224 -0.0636  1.2342
 4308SOL    HW214366   1.043   1.116   4.911  0.6780  0.0300  0.7072
 4309SOL     OW14367   4.769   3.998   3.238 -0.5497  0.0062 -0.5080
 4309SOL    HW114368   4.855   4.037   3.253 -0.4246 -0.9080  1.4227
 4309SOL    HW214369   4.710   4.073   3.228  0.2287  0.6487 -0.3946
 4310SOL     OW14370   1.336   0.423   5.188 -0.9113 -0.0545 -0.1222
 4310SOL    HW114371   1.364   0.454   5.274 -2.6571  0.1885  0.4047
 4310SOL    HW214372   1.359   0.330   5.186  0.1704  0.1905  0.1252
 4311SOL     OW14373   6.511   4.045   2.802 -0.2874  0.7925  0.2390
 4311SOL    HW114374   6.587   4.029   2.858 -0.3391  2.7729  0.9617
 4311SOL    HW214375   6.438   4.004   2.847  0.4016 -1.8888 -0.8830
 4312SOL     OW14376   0.719   2.814  10.928  0.1494  0.2261 -0.3409
 4312SOL    HW114377   0.771   2.764  10.865 -1.4595 -0.9778 -0.7740
 4312SOL    HW214378   0.684   2.888  10.878  0.2235  0.2084 -0.4181
 4313SOL     OW14379   2.920   3.923   6.024 -0.4030 -0.1829 -0.4962
 4313SOL    HW114380   2.864   3.905   6.100 -1.6604  2.3398 -0.7067
 4313SOL    HW214381   2.868   3.894   5.949  0.1645 -1.2200 -0.4946
 4314SOL     OW14382   0.536   2.361  11.965  0.1512 -0.0730  0.1736
 4314SOL    HW114383   0.532   2.296  11.894  3.3977 -0.0550 -0.1507
 4314SOL    HW214384   0.585   2.435  11.927 -0.5945  1.1907  1.5707
 4315SOL     OW14385   4.279   2.456  10.741  0.3649  0.3826 -0.2340
 4315SOL    HW114386   4.194   2.435  10.702 -0.4542  0.3174  1.4791
 4315SOL    HW214387   4.305   2.375  10.785  0.9146  0.6639 -0.0329
 4316SOL     OW14388   3.168   6.987  10.832  0.5645  0.0816 -0.5244
 4316SOL    HW114389   3.129   7.052  10.890  1.6152 -0.8722  1.3430
 4316SOL    HW214390   3.225   6.935  10.889  0.3406 -1.9931 -2.0916
 4317SOL     OW14391   2.389   2.873   1.106  0.3512  0.8147 -0.3940
 4317SOL    HW114392   2.421   2.875   1.196 -0.3606  1.3731 -0.1390
 4317SOL    HW214393   2.396   2.782   1.079 -2.0067  0.0761  1.1858
 4318SOL     OW14394   2.063   7.835  11.849 -0.3749  0.4725  0.2108
 4318SOL    HW114395   2.082   7.873  11.935 -0.5908  0.0460  0.4495
 4318SOL    HW214396   1.980   7.875  11.824  0.4383  1.8059 -0.5221
 4319SOL     OW14397   6.778   1.772   1.408 -0.6066 -0.3100 -1.0415
 4319SOL    HW114398   6.856   1.806   1.363  0.6914 -1.7124  0.0618
 4319SOL    HW214399   6.759   1.689   1.365  1.0609 -2.0169  1.2599
 4320SOL     OW14400   4.809   4.667   1.887 -0.5385 -0.4271 -0.0866
 4320SOL    HW114401   4.744   4.605   1.921  0.3737 -0.5565  1.5408
 4320SOL    HW214402   4.885   4.612   1.866 -0.3214 -0.0575 -0.2644
 4321SOL     OW14403   1.971   1.817   8.883  0.4121 -0.5896  0.2804
 4321SOL    HW114404   2.057   1.857   8.894 -0.3680  1.1218  0.5422
 4321SOL    HW214405   1.917   1.855   8.953 -0.8313 -0.7833 -0.5258
 4322SOL     OW14406   1.144   2.849   1.924 -0.1035  0.3718  0.2452
 4322SOL    HW114407   1.202   2.884   1.855  0.9478 -2.6158 -0.5271
 4322SOL    HW214408   1.189   2.871   2.006 -0.6483  2.7187 -0.0152
 4323SOL     OW14409   2.783   0.091   9.051  0.1673  0.0866 -0.6397
 4323SOL    HW114410   2.805   0.003   9.082  0.0650 -0.2490 -1.4981
 4323SOL    HW214411   2.752   0.078   8.962  1.2290  1.1192 -1.1848
 4324SOL     OW14412   1.157   7.941   6.561 -0.4301 -0.1631  0.1252
 4324SOL    HW114413   1.188   8.022   6.520 -0.5206  0.0210  0.4119
 4324SOL    HW214414   1.185   7.872   6.503  0.7964 -0.0255  0.5289
 4325SOL     OW14415   3.378   3.827   4.514  0.0835 -0.7076 -0.1518
 4325SOL    HW114416   3.331   3.867   4.442 -0.4904 -1.0898  0.0057
 4325SOL    HW214417   3.404   3.900   4.570 -2.7427 -0.6540  1.2235
 4326SOL     OW14418   1.436   2.923  11.311  0.2937 -0.4696  0.1704
 4326SOL    HW114419   1.435   3.007  11.358  0.0650  0.3395 -1.2092
 4326SOL    HW214420   1.528   2.908  11.290  0.3657 -0.6992  0.6498
 4327SOL     OW14421   5.801   0.418   0.707  0.1215  0.2667  0.0834
 4327SOL    HW114422   5.737   0.481   0.675 -0.0366  0.3125  0.4888
 4327SOL    HW214423   5.846   0.463   0.778  0.6657  0.2673 -0.2515
 4328SOL     OW14424   2.248   5.401  11.589  0.3724  0.2044  0.1184
 4328SOL    HW114425   2.225   5.310  11.604  2.6668 -0.5422 -0.4442
 4328SOL    HW214426   2.177   5.436  11.535 -1.3837 -0.7101  1.7104
 4329SOL     OW14427   6.109   0.085   6.767  0.0688 -0.0741  0.0202
 4329SOL    HW114428   6.058   0.004   6.771  0.2434 -0.2737 -1.4137
 4329SOL    HW214429   6.199   0.057   6.782  0.0610 -0.0645  0.0850
 4330SOL     OW14430   2.990   6.542   6.784 -0.0337 -0.0991  0.6163
 4330SOL    HW114431   2.935   6.616   6.761 -0.9834 -0.8256  0.4829
 4330SOL    HW214432   3.078   6.566   6.754 -0.2875  1.0338  0.7541
 4331SOL     OW14433   5.891   5.012   0.462  0.4312 -0.0759  0.3182
 4331SOL    HW114434   5.983   4.993   0.440  0.0646  0.3332 -1.7505
 4331SOL    HW214435   5.894   5.038   0.554  2.5875  1.1733 -0.0302
 4332SOL     OW14436   2.224   5.775   5.092 -0.2734 -0.6308 -0.2446
 4332SOL    HW114437   2.264   5.807   5.011 -1.3748  1.0694 -0.1672
 4332SOL    HW214438   2.223   5.679   5.082  1.4654 -0.5874 -1.3172
 4333SOL     OW14439   2.003   5.436   9.938 -0.1738  0.1407 -0.1188
 4333SOL    HW114440   1.979   5.484   9.858 -1.3243  0.6936  0.5297
 4333SOL    HW214441   1.936   5.369   9.946 -0.0910  0.1231  0.4140
 4334SOL     OW14442   4.021   7.480   4.742 -0.2275 -0.2790 -0.0853
 4334SOL    HW114443   4.116   7.485   4.755  0.1344 -1.1594 -2.0517
 4334SOL    HW214444   4.000   7.387   4.756 -0.9367  0.0239  0.9896
 4335SOL     OW14445   1.361   5.657  12.254 -0.2879  0.1069  0.0452
 4335SOL    HW114446   1.342   5.631  12.163  1.5615 -0.7841 -0.1426
 4335SOL    HW214447   1.416   5.734  12.245 -0.8803  0.5759  0.4477
 4336SOL     OW14448   0.490   7.116  10.109 -0.2793  0.6937 -0.4701
 4336SOL    HW114449   0.442   7.197  10.089 -0.3168  0.8098  0.0761
 4336SOL    HW214450   0.433   7.070  10.171  0.6561  1.1868  0.7899
 4337SOL     OW14451   5.980   2.992   3.851 -0.0687 -0.0808  0.2239
 4337SOL    HW114452   5.944   3.023   3.768 -2.0228 -0.6981  0.7864
 4337SOL    HW214453   5.982   3.071   3.906  2.3643  0.5970 -0.6954
 4338SOL     OW14454   1.051   1.022   1.242  0.1850 -0.6561 -0.3287
 4338SOL    HW114455   1.109   1.097   1.223 -0.4398  0.2052  0.9912
 4338SOL    HW214456   1.109   0.958   1.284  0.2491  0.1980  0.9832
 4339SOL     OW14457   0.400   0.394   9.342  0.6168 -0.1659 -0.3026
 4339SOL    HW114458   0.320   0.443   9.355 -0.2943 -1.9032  1.0491
 4339SOL    HW214459   0.414   0.396   9.247 -0.4598  0.9871 -0.4604
 4340SOL     OW14460   6.306   0.059   7.387 -0.2519  0.5891  0.0840
 4340SOL    HW114461   6.214   0.036   7.403  0.2019 -0.3224  1.5840
 4340SOL    HW214462   6.310   0.154   7.401 -0.4798  0.2753  2.7609
 4341SOL     OW14463   4.814   2.341  11.839  0.0029  0.1431  0.6145
 4341SOL    HW114464   4.720   2.323  11.847 -0.3954 -0.1616 -3.0559
 4341SOL    HW214465   4.818   2.423  11.790  1.6132 -0.0969  0.2926
 4342SOL     OW14466   1.946   1.279  10.317  0.3506  0.4123 -0.1652
 4342SOL    HW114467   1.944   1.185  10.301  0.5930  0.1496  1.2136
 4342SOL    HW214468   2.006   1.290  10.391 -0.4897  1.5450  0.3795
 4343SOL     OW14469   7.336   2.629   9.913  0.3314 -0.0452 -0.3526
 4343SOL    HW114470   7.247   2.659   9.896 -0.1570 -1.6586 -0.8125
 4343SOL    HW214471   7.389   2.667   9.843  0.3435  2.2215  0.8075
 4344SOL     OW14472   7.600   3.580  11.934  0.3845  0.0692 -0.1013
 4344SOL    HW114473   7.626   3.672  11.934  3.1445 -0.5480  2.7274
 4344SOL    HW214474   7.577   3.561  11.842  0.7963  3.2363 -0.9613
 4345SOL     OW14475   6.034   0.645   5.405 -0.2008 -0.1160  0.2063
 4345SOL    HW114476   6.034   0.623   5.499  0.1303  0.4415  0.3378
 4345SOL    HW214477   5.971   0.717   5.397 -1.8066 -1.5135 -0.3336
 4346SOL     OW14478   5.434   6.998   7.630  0.0046 -0.7941 -0.1169
 4346SOL    HW114479   5.393   7.082   7.608 -1.4260 -1.4584 -0.0966
 4346SOL    HW214480   5.409   6.939   7.558 -0.6381 -1.7007  0.8200
 4347SOL     OW14481   4.901   1.262   6.310  0.0145 -0.0282 -0.3470
 4347SOL    HW114482   4.971   1.321   6.337 -0.7119  0.5787  0.2509
 4347SOL    HW214483   4.868   1.224   6.392 -0.5379 -0.0990 -0.5963
 4348SOL     OW14484   0.159   4.892   0.620 -0.3574  0.0556 -0.4290
 4348SOL    HW114485   0.170   4.908   0.714 -0.5153  0.3388 -0.4572
 4348SOL    HW214486   0.087   4.950   0.594 -2.1004 -1.9176 -0.2055
 4349SOL     OW14487   4.036   0.054  11.144 -0.3464  0.0732  0.0341
 4349SOL    HW114488   3.991  -0.024  11.178 -1.3028 -0.2487 -1.8606
 4349SOL    HW214489   4.013   0.056  11.051 -1.6628  3.5416  0.3146
 4350SOL     OW14490   4.749   7.158  12.007 -0.5807 -0.5571 -0.5499
 4350SOL    HW114491   4.822   7.133  11.950 -0.5624 -2.2489  0.1624
 4350SOL    HW214492   4.699   7.078  12.019 -0.6010 -0.2761  1.7584
 4351SOL     OW14493   5.117   6.223   7.085  0.2137 -0.1559 -0.0709
 4351SOL    HW114494   5.133   6.244   6.993  0.5638  0.6067  0.1568
 4351SOL    HW214495   5.204   6.217   7.125  0.0351  0.8421  0.4935
 4352SOL     OW14496   1.671   3.075   4.581  0.0756 -0.0270 -0.0001
 4352SOL    HW114497   1.684   2.991   4.538 -0.1113 -0.0702  0.0271
 4352SOL    HW214498   1.694   3.140   4.514 -0.6972 -0.0884 -0.3296
 4353SOL     OW14499   0.165   2.740   6.776 -0.5438 -0.2269 -0.3865
 4353SOL    HW114500   0.254   2.704   6.770 -0.8745 -1.3076  0.8528
 4353SOL    HW214501   0.177   2.827   6.812  0.1625  0.4816 -2.2019
 4354SOL     OW14502   2.344   6.975   3.971  0.3270  0.5575 -0.4505
 4354SOL    HW114503   2.372   7.065   3.985 -1.6811  1.1654 -0.1579
 4354SOL    HW214504   2.261   6.967   4.017  0.5708 -1.5354 -0.2596
 4355SOL     OW14505   2.584   3.147   4.758  0.5358 -0.3538 -0.0378
 4355SOL    HW114506   2.589   3.219   4.821  0.3831  2.5313 -3.0878
 4355SOL    HW214507   2.675   3.137   4.728  0.2907 -0.3038 -0.7969
 4356SOL     OW14508   1.897   5.575   6.017  0.0205  0.4025  0.3959
 4356SOL    HW114509   1.883   5.481   6.022 -0.8108  0.4648 -0.4641
 4356SOL    HW214510   1.961   5.586   5.947 -1.3679  0.5775 -0.8898
 4357SOL     OW14511   2.113   4.245   3.525  0.5005 -0.9392 -0.1387
 4357SOL    HW114512   2.113   4.184   3.451 -1.4929 -0.5247 -0.5517
 4357SOL    HW214513   2.054   4.204   3.589  1.3679 -0.7725  0.8005
 4358SOL     OW14514   4.998   4.203   3.381 -0.3367 -0.7588 -0.0478
 4358SOL    HW114515   4.989   4.118   3.425  1.8952 -0.9814  0.1017
 4358SOL    HW214516   5.089   4.229   3.397 -0.1016  0.2847 -2.5215
 4359SOL     OW14517   1.611   2.635   8.904  0.0232  0.3078 -0.0479
 4359SOL    HW114518   1.632   2.658   8.995 -0.3066 -0.3552  0.2033
 4359SOL    HW214519   1.640   2.545   8.895 -2.1598 -0.4674  0.1532
 4360SOL     OW14520   5.427   0.592   4.136 -0.0826 -0.1353 -0.4903
 4360SOL    HW114521   5.463   0.680   4.129 -1.9238  0.9802  2.5321
 4360SOL    HW214522   5.489   0.544   4.192 -0.8357  0.3791  0.8291
 4361SOL     OW14523   2.365   2.584   1.796  0.0660  0.2068 -0.1505
 4361SOL    HW114524   2.407   2.651   1.742 -1.0725  0.6381 -0.5275
 4361SOL    HW214525   2.272   2.592   1.776 -0.3046 -0.1281  1.3398
 4362SOL     OW14526   4.862   5.536   9.788 -0.1946 -0.7836  0.5300
 4362SOL    HW114527   4.790   5.593   9.817  0.4814  0.7744 -0.6694
 4362SOL    HW214528   4.923   5.596   9.745 -0.0075 -2.5965 -1.9010
 4363SOL     OW14529   5.596   5.562   1.540  0.3726  0.3827 -0.2805
 4363SOL    HW114530   5.586   5.612   1.459  0.2550 -2.4584 -2.1622
 4363SOL    HW214531   5.513   5.517   1.551  0.9098 -0.4443  0.5641
 4364SOL     OW14532   2.431   4.001   1.967 -0.0748 -0.4463  0.4408
 4364SOL    HW114533   2.360   3.940   1.986  0.2031 -1.7718 -2.3171
 4364SOL    HW214534   2.468   3.970   1.884  1.9988  1.7843  0.4217
 4365SOL     OW14535   1.458   3.654  10.553  0.1718  0.0686 -0.5742
 4365SOL    HW114536   1.454   3.605  10.635 -0.4955  0.1458 -0.5582
 4365SOL    HW214537   1.384   3.714  10.557  0.2595  0.2182 -1.1407
 4366SOL     OW14538   1.526   3.347   1.393 -0.5202 -0.1333  0.1255
 4366SOL    HW114539   1.548   3.387   1.477  0.8778  0.5251 -0.5109
 4366SOL    HW214540   1.597   3.374   1.335 -0.6077 -1.8912 -0.8686
 4367SOL     OW14541   3.108   3.704   1.791 -0.2524  0.1860 -0.0022
 4367SOL    HW114542   3.104   3.712   1.886  0.1944 -2.3452  0.2922
 4367SOL    HW214543   3.189   3.750   1.766  1.5252 -2.0500  1.3060
 4368SOL     OW14544   2.109   3.382   6.687 -0.2862  0.0662  0.2187
 4368SOL    HW114545   2.109   3.468   6.730 -2.0944  0.6538 -0.8249
 4368SOL    HW214546   2.189   3.382   6.634 -1.3557  2.1579 -1.6026
 4369SOL     OW14547   3.004   0.871  10.347  0.1562 -0.3636  0.5572
 4369SOL    HW114548   2.911   0.865  10.324 -0.0450  0.1353  1.2125
 4369SOL    HW214549   3.027   0.962  10.329  0.4614 -0.4322  0.6030
 4370SOL     OW14550   7.968   1.118   6.949 -0.5110 -0.1520 -0.1923
 4370SOL    HW114551   7.915   1.088   7.022 -0.9462  0.6234 -0.1875
 4370SOL    HW214552   8.055   1.134   6.987 -0.2647 -1.3690 -0.1939
 4371SOL     OW14553   2.154   0.573   9.566 -0.0423  0.3846  0.4496
 4371SOL    HW114554   2.097   0.625   9.509 -0.9464 -0.0582  0.9372
 4371SOL    HW214555   2.242   0.609   9.550 -0.0725 -0.4548 -2.0748
 4372SOL     OW14556   5.511   5.972   9.455  0.2166 -0.2449 -0.8989
 4372SOL    HW114557   5.492   5.998   9.365 -3.0073  2.1210  0.2783
 4372SOL    HW214558   5.472   5.885   9.464  1.6371 -1.0341 -2.0499
 4373SOL     OW14559   7.135   0.590   2.372  0.2531  0.0329  0.7450
 4373SOL    HW114560   7.094   0.620   2.453 -0.2891  0.6365  0.2581
 4373SOL    HW214561   7.228   0.580   2.394  0.1562  0.4507  1.3629
 4374SOL     OW14562   6.875   7.549   4.450 -0.1754  0.4145  0.7058
 4374SOL    HW114563   6.919   7.557   4.535  1.9572  0.2668 -0.3165
 4374SOL    HW214564   6.911   7.469   4.412 -1.1188  0.4625 -0.3295
 4375SOL     OW14565   6.239   6.478  10.050 -0.0764 -0.5224 -0.6526
 4375SOL    HW114566   6.170   6.450  10.110  1.9860 -1.0955  1.6148
 4375SOL    HW214567   6.260   6.400   9.999 -0.4569 -0.5964 -0.6978
 4376SOL     OW14568   1.391   6.206   4.769 -0.1843  0.3864 -0.3901
 4376SOL    HW114569   1.383   6.127   4.716 -1.4393  1.3928 -1.7970
 4376SOL    HW214570   1.455   6.260   4.723  0.5847  0.2491  0.4989
 4377SOL     OW14571   1.667   3.810  10.708  0.2482  0.0142  0.0958
 4377SOL    HW114572   1.726   3.734  10.712  0.9181  0.4101 -1.4476
 4377SOL    HW214573   1.659   3.829  10.614 -1.7405  0.4574  0.3230
 4378SOL     OW14574   5.879   3.430  10.772  0.2246  0.5691 -0.4775
 4378SOL    HW114575   5.828   3.387  10.840 -0.1788 -0.0036 -1.1297
 4378SOL    HW214576   5.953   3.468  10.818 -0.5701  1.0690  0.4366
 4379SOL     OW14577   6.560   6.219   3.833 -0.6246 -0.0703 -0.2317
 4379SOL    HW114578   6.569   6.260   3.747  0.1710  2.6609  1.0600
 4379SOL    HW214579   6.469   6.189   3.836 -0.8789  0.4771 -1.7230
 4380SOL     OW14580   7.236   7.404  10.071  0.2400 -0.5356  0.2102
 4380SOL    HW114581   7.142   7.423  10.065  0.7035  1.8715 -0.6149
 4380SOL    HW214582   7.248   7.377  10.162 -1.0513  0.5982  0.7721
 4381SOL     OW14583   3.798   2.255   0.260  0.3479 -0.2494 -0.5891
 4381SOL    HW114584   3.788   2.312   0.184  1.6157  1.4736  0.4725
 4381SOL    HW214585   3.716   2.206   0.264 -1.3672  2.4024 -0.8474
 4382SOL     OW14586   2.966   7.201   9.766 -0.1397 -0.3465 -0.2276
 4382SOL    HW114587   2.998   7.111   9.774 -0.6186 -0.5615 -0.6674
 4382SOL    HW214588   3.029   7.253   9.815 -1.0545 -1.1665  1.9395
 4383SOL     OW14589   3.580   7.014   9.720  0.1283 -0.0487 -0.4049
 4383SOL    HW114590   3.580   7.027   9.814  2.5435  0.6294 -0.4305
 4383SOL    HW214591   3.533   6.932   9.706 -0.3347 -0.1051  1.3626
 4384SOL     OW14592   1.228   0.257   0.410  0.4951 -0.2145 -0.4762
 4384SOL    HW114593   1.190   0.292   0.329 -1.0191  2.0892  1.1153
 4384SOL    HW214594   1.153   0.235   0.465  1.4719 -0.2008  0.9167
 4385SOL     OW14595   7.401   6.298   3.699 -0.3328 -0.1946 -0.0905
 4385SOL    HW114596   7.430   6.220   3.651  0.4514 -1.5829  2.4888
 4385SOL    HW214597   7.481   6.346   3.718 -0.4357 -0.4572  1.0924
 4386SOL     OW14598   7.867   7.001   4.055  0.0551 -0.6712 -0.4674
 4386SOL    HW114599   7.886   7.082   4.007 -0.4247 -0.1615  0.1956
 4386SOL    HW214600   7.920   6.935   4.010  0.0505 -0.1023 -1.3522
 4387SOL     OW14601   6.331   7.440   6.081 -0.7881 -0.3666  0.2145
 4387SOL    HW114602   6.396   7.403   6.022 -1.3853 -0.7751 -0.1978
 4387SOL    HW214603   6.333   7.383   6.158 -1.2764 -0.9198 -0.1681
 4388SOL     OW14604   5.491   5.513   6.924  0.0839  0.0520  0.5112
 4388SOL    HW114605   5.460   5.530   7.013  0.0602 -0.3252  0.5791
 4388SOL    HW214606   5.503   5.418   6.921  2.0636  0.2694  0.7522
 4389SOL     OW14607   5.522   3.109   6.183 -0.1313  0.1853  0.0042
 4389SOL    HW114608   5.506   3.083   6.274 -1.6956  0.4562 -0.1635
 4389SOL    HW214609   5.487   3.037   6.131 -0.0058  0.4170 -0.4016
 4390SOL     OW14610   5.120   0.536   2.098 -0.0459 -0.1216 -0.2070
 4390SOL    HW114611   5.079   0.541   2.011 -1.4677 -1.6096  0.3271
 4390SOL    HW214612   5.074   0.601   2.150  0.7901  0.7536 -0.5215
 4391SOL     OW14613   0.477   7.465   6.825 -0.5416  0.1320 -0.3066
 4391SOL    HW114614   0.524   7.461   6.742 -2.9526  0.2736 -1.7772
 4391SOL    HW214615   0.478   7.557   6.850 -0.8701  0.2964 -0.8747
 4392SOL     OW14616   5.039   4.470   7.600  0.4115  0.1564  0.6354
 4392SOL    HW114617   4.972   4.411   7.568  1.2808 -0.6490  0.2579
 4392SOL    HW214618   5.002   4.509   7.680 -1.5660  1.7820 -0.9815
 4393SOL     OW14619   6.035   0.803   8.287  0.1809  0.3557  0.3333
 4393SOL    HW114620   5.941   0.816   8.296 -0.2660 -2.1169 -0.1654
 4393SOL    HW214621   6.060   0.750   8.363  0.6637 -1.1222 -0.8180
 4394SOL     OW14622   4.479   2.409   2.943 -1.1797  0.2656 -0.3498
 4394SOL    HW114623   4.399   2.368   2.978 -1.2748  0.7630  0.0210
 4394SOL    HW214624   4.501   2.356   2.866 -0.8496 -0.9778  0.5688
 4395SOL     OW14625   0.181   3.899   3.711  0.0087 -0.1221 -0.4398
 4395SOL    HW114626   0.214   3.813   3.738 -0.6809 -0.4665 -0.6921
 4395SOL    HW214627   0.092   3.883   3.681 -0.0325  0.6378 -0.7513
 4396SOL     OW14628   0.636   0.093   5.166 -0.1850  0.0928  0.3232
 4396SOL    HW114629   0.587   0.047   5.097  2.0187 -2.2078  0.1372
 4396SOL    HW214630   0.703   0.142   5.119  1.3173 -1.4719  0.7201
 4397SOL     OW14631   0.221   5.825   1.872 -0.6412 -0.4510 -0.7735
 4397SOL    HW114632   0.127   5.809   1.872 -0.6291 -0.7367 -2.5533
 4397SOL    HW214633   0.231   5.911   1.831 -0.2339  0.8068  1.7841
 4398SOL     OW14634   4.681   0.643   0.854  0.5154 -0.0956  0.1918
 4398SOL    HW114635   4.611   0.628   0.918  0.7671  0.4849  0.6045
 4398SOL    HW214636   4.638   0.689   0.782  0.5522  0.6493  0.6339
 4399SOL     OW14637   4.643   6.522   0.212 -0.0495  0.4789  0.5200
 4399SOL    HW114638   4.729   6.555   0.237  0.2058  0.5845 -0.4719
 4399SOL    HW214639   4.639   6.434   0.250  0.4062  0.5511  0.7418
 4400SOL     OW14640   5.559   3.563   9.092 -0.1120  0.1750  0.2884
 4400SOL    HW114641   5.639   3.609   9.068 -0.1172 -0.4895 -1.0840
 4400SOL    HW214642   5.572   3.473   9.060 -1.2271 -0.0537  0.4387
 4401SOL     OW14643   6.348   6.665   5.436 -0.4845 -0.5001 -0.8430
 4401SOL    HW114644   6.298   6.597   5.481  0.0534 -0.3650 -0.0110
 4401SOL    HW214645   6.391   6.714   5.507 -0.6775  0.5559 -1.4382
 4402SOL     OW14646   5.524   4.648   7.646 -0.3363  0.3332 -0.3496
 4402SOL    HW114647   5.434   4.631   7.671 -0.6742  1.4807 -0.7062
 4402SOL    HW214648   5.518   4.715   7.578  0.8219  1.5139  0.6341
 4403SOL     OW14649   1.491   5.279   5.505 -0.1270 -0.1235 -0.0300
 4403SOL    HW114650   1.488   5.363   5.550  1.2571  0.5877 -1.1588
 4403SOL    HW214651   1.578   5.244   5.526 -0.4385 -0.9713 -0.1105
 4404SOL     OW14652   6.218   7.227  11.072  0.1000 -0.0005 -0.3072
 4404SOL    HW114653   6.243   7.145  11.115  0.0339  0.8486  1.4601
 4404SOL    HW214654   6.264   7.295  11.121  0.9209  0.9866 -2.3484
 4405SOL     OW14655   2.504   7.702  10.457 -0.3216 -0.5910  0.0377
 4405SOL    HW114656   2.408   7.706  10.461 -0.3009  0.0480 -0.0816
 4405SOL    HW214657   2.533   7.767  10.521  0.0245  0.4990 -1.1793
 4406SOL     OW14658   2.704   1.325   3.793  0.1485  0.2580  0.3657
 4406SOL    HW114659   2.756   1.364   3.722 -1.2689 -0.1583 -0.9678
 4406SOL    HW214660   2.762   1.260   3.832  1.1884  0.9510  0.0239
 4407SOL     OW14661   4.968   7.281  10.905  0.2271  0.1215  0.1897
 4407SOL    HW114662   5.057   7.313  10.918 -0.1097  1.0272  0.3326
 4407SOL    HW214663   4.976   7.215  10.836  0.9621  0.4240 -0.0196
 4408SOL     OW14664   4.337   0.341   0.938  0.2994 -0.2692  0.0355
 4408SOL    HW114665   4.295   0.342   0.852  0.9618 -1.1875 -0.3018
 4408SOL    HW214666   4.408   0.278   0.930  2.1491  1.6790  0.4260
 4409SOL     OW14667   3.650   6.435   8.680  0.2177  0.0367 -0.3740
 4409SOL    HW114668   3.664   6.488   8.601  0.5916 -0.4135 -0.6246
 4409SOL    HW214669   3.711   6.471   8.744 -1.6565  1.8582  0.4712
 4410SOL     OW14670   2.596   4.725  10.657  0.0530 -0.6891  0.2170
 4410SOL    HW114671   2.667   4.727  10.592  0.3270  0.5940  0.5293
 4410SOL    HW214672   2.544   4.648  10.633  0.5488 -0.6423 -1.0881
 4411SOL     OW14673   1.433   3.023   7.560 -0.0080 -0.0501  0.4481
 4411SOL    HW114674   1.487   3.082   7.614  0.4009 -1.1878  1.3287
 4411SOL    HW214675   1.367   3.080   7.522  0.3338  0.9787  1.3225
 4412SOL     OW14676   4.091   3.255   9.987 -0.1348  0.0114  0.7231
 4412SOL    HW114677   4.051   3.287  10.068 -0.6565  0.4196  0.3118
 4412SOL    HW214678   4.141   3.178  10.014 -0.4235  0.0531  1.4082
 4413SOL     OW14679   7.580   3.813   7.083  0.0773  0.0014  0.2536
 4413SOL    HW114680   7.624   3.839   7.164  0.4421 -0.1553  0.1072
 4413SOL    HW214681   7.607   3.879   7.019 -0.5507  0.3670  0.3652
 4414SOL     OW14682   7.799   4.496  10.368 -0.1997 -0.1626  0.4183
 4414SOL    HW114683   7.809   4.455  10.454  1.0468  0.6594  0.6867
 4414SOL    HW214684   7.735   4.566  10.381 -0.2387 -0.2336  0.6058
 4415SOL     OW14685   4.062   0.139  10.241  0.0811  0.8164 -0.1081
 4415SOL    HW114686   4.148   0.113  10.209  0.0070  1.5893 -0.9788
 4415SOL    HW214687   4.023   0.187  10.168 -0.9303  0.8204  0.4190
 4416SOL     OW14688   1.103   6.905   0.214  0.1349 -0.2791  0.3063
 4416SOL    HW114689   1.129   6.887   0.304 -0.0800  0.0565  0.4372
 4416SOL    HW214690   1.017   6.865   0.205 -0.3398  0.6627  0.5954
 4417SOL     OW14691   5.274   2.896   0.829 -0.1701 -0.0224 -0.5576
 4417SOL    HW114692   5.261   2.822   0.889  0.0023 -1.3781 -2.1297
 4417SOL    HW214693   5.346   2.868   0.773  0.7505  1.8900 -0.4010
 4418SOL     OW14694   1.668   6.724  12.138  0.1618  0.3931 -0.6317
 4418SOL    HW114695   1.621   6.739  12.056 -0.0307 -0.2211 -0.6426
 4418SOL    HW214696   1.759   6.714  12.113 -0.1295 -1.8371 -1.0590
 4419SOL     OW14697   3.185   7.719   9.639 -0.6605 -0.2917 -0.3865
 4419SOL    HW114698   3.109   7.671   9.670 -0.4330  0.3849  1.3035
 4419SOL    HW214699   3.257   7.656   9.645 -0.8551 -0.5703 -0.8662
 4420SOL     OW14700   5.225   5.864   8.933 -0.1920 -0.3487  0.0385
 4420SOL    HW114701   5.206   5.913   8.853 -3.1590 -0.5404  0.4982
 4420SOL    HW214702   5.191   5.918   9.004 -2.1961 -2.2844  0.6909
 4421SOL     OW14703   5.191   5.211   9.671 -0.4057  0.1688 -0.1103
 4421SOL    HW114704   5.161   5.224   9.761 -0.0338 -1.3846  0.2552
 4421SOL    HW214705   5.117   5.170   9.626  0.7279 -2.9175  0.5919
 4422SOL     OW14706   3.722   7.108   9.493  0.7311 -0.0898 -0.3818
 4422SOL    HW114707   3.677   7.191   9.477  0.5546 -0.2005 -0.4567
 4422SOL    HW214708   3.670   7.065   9.561  0.6305 -0.2924 -0.5879
 4423SOL     OW14709   3.056   6.293   0.174 -0.4100  0.5351 -0.5330
 4423SOL    HW114710   3.054   6.225   0.107 -0.7937  0.4089 -0.3973
 4423SOL    HW214711   3.129   6.350   0.149  1.4322 -1.1970  0.6322
 4424SOL     OW14712   0.633   4.951   9.343 -0.0627 -0.2056  0.2274
 4424SOL    HW114713   0.662   4.899   9.268 -1.2522 -1.6923  0.7516
 4424SOL    HW214714   0.645   5.042   9.314  2.0058 -0.7213 -0.7338
 4425SOL     OW14715   7.142   5.848   4.497 -0.2452 -0.5928 -0.3963
 4425SOL    HW114716   7.112   5.773   4.445 -0.6417  0.0073 -1.0416
 4425SOL    HW214717   7.213   5.886   4.445 -1.0191  0.3464 -0.7896
 4426SOL     OW14718   5.694   5.487   3.591 -0.5815 -0.4215  0.6306
 4426SOL    HW114719   5.694   5.525   3.503 -2.0218  0.2889  0.9156
 4426SOL    HW214720   5.703   5.393   3.577  0.4623 -0.2140 -0.2066
 4427SOL     OW14721   5.095   6.055   5.480  0.5046 -0.1009 -0.9475
 4427SOL    HW114722   5.091   6.007   5.562 -1.1178  1.0458 -0.3082
 4427SOL    HW214723   5.162   6.010   5.429  1.4320 -0.9501  0.9217
 4428SOL     OW14724   5.695   1.486  10.031  0.2085 -0.3593 -0.3056
 4428SOL    HW114725   5.723   1.423   9.964  0.7614  0.6016 -1.0080
 4428SOL    HW214726   5.657   1.432  10.100  1.3319 -1.5299 -0.5475
 4429SOL     OW14727   5.505   5.650   0.518 -0.0628  0.1129 -0.1239
 4429SOL    HW114728   5.419   5.656   0.560 -0.1991 -1.2528 -0.1791
 4429SOL    HW214729   5.538   5.740   0.520 -1.6029  0.7229 -0.3486
 4430SOL     OW14730   7.734   2.501   5.276 -0.1314 -0.1653 -0.3596
 4430SOL    HW114731   7.662   2.445   5.306  1.3108 -1.6211  0.5403
 4430SOL    HW214732   7.765   2.544   5.356  1.3704 -1.2422 -0.3263
 4431SOL     OW14733   3.454   4.604   8.742 -0.2805  0.0606  0.1929
 4431SOL    HW114734   3.535   4.639   8.705 -0.3727  0.7077  0.5735
 4431SOL    HW214735   3.416   4.678   8.791 -1.1720 -0.1889 -0.0941
 4432SOL     OW14736   5.220   4.923   6.423 -0.6750 -0.4033 -0.9957
 4432SOL    HW114737   5.143   4.918   6.480 -1.1476 -1.9743 -1.6967
 4432SOL    HW214738   5.205   5.001   6.370 -2.5525 -1.4442 -2.1076
 4433SOL     OW14739   6.448   2.990   3.523 -0.1737  0.2913 -0.1332
 4433SOL    HW114740   6.357   3.019   3.530  0.3604  2.5017 -1.2730
 4433SOL    HW214741   6.482   2.993   3.612 -1.4654 -1.6547  0.4821
 4434SOL     OW14742   5.347   0.865   2.886 -0.5519 -0.1233 -0.1457
 4434SOL    HW114743   5.421   0.926   2.877 -0.6232 -0.1496 -0.9709
 4434SOL    HW214744   5.323   0.870   2.978 -0.7509  1.3305 -0.2641
 4435SOL     OW14745   0.233   7.246   3.278 -0.0561  0.4068 -0.3878
 4435SOL    HW114746   0.154   7.231   3.225  0.3562 -1.1172 -0.6172
 4435SOL    HW214747   0.215   7.328   3.323 -2.7277 -0.9185  1.2361
 4436SOL     OW14748   2.020   2.966   7.334  0.0760  0.1333 -0.2000
 4436SOL    HW114749   1.942   2.978   7.279 -0.0032  1.7942  0.2350
 4436SOL    HW214750   2.064   2.890   7.295 -1.2229 -0.2273 -1.0684
 4437SOL     OW14751   7.329   5.495  11.260 -0.8253 -0.1118 -0.1120
 4437SOL    HW114752   7.388   5.505  11.186  0.1031 -0.1041  0.6183
 4437SOL    HW214753   7.290   5.408  11.247 -1.8610  0.4995 -1.4217
 4438SOL     OW14754   1.593   2.337   9.574  0.6937  0.2331  0.3995
 4438SOL    HW114755   1.596   2.280   9.651  1.0946 -0.7305 -0.3142
 4438SOL    HW214756   1.517   2.394   9.589  0.0652 -0.7264  0.9561
 4439SOL     OW14757   6.649   6.265   7.130  0.1420 -0.0326  0.3595
 4439SOL    HW114758   6.690   6.203   7.191 -1.5332 -2.7448 -1.1027
 4439SOL    HW214759   6.717   6.284   7.065  0.1492 -1.8927 -0.2246
 4440SOL     OW14760   2.549   0.969   0.517  0.0369  0.2594  0.2725
 4440SOL    HW114761   2.589   1.038   0.463  0.1065  0.3195  0.3998
 4440SOL    HW214762   2.623   0.914   0.544 -0.0733 -0.1279 -0.1996
 4441SOL     OW14763   4.002   6.441   4.233  0.5021  0.4715 -0.1616
 4441SOL    HW114764   4.037   6.365   4.279  2.0182  1.0114 -0.3683
 4441SOL    HW214765   3.960   6.493   4.301  0.3245 -0.0724  0.1491
 4442SOL     OW14766   4.851   5.104   0.529  0.1385  0.3495 -0.6758
 4442SOL    HW114767   4.945   5.120   0.518  0.7802 -2.6484 -0.5594
 4442SOL    HW214768   4.834   5.027   0.475 -2.1486  0.4620 -0.2147
 4443SOL     OW14769   7.179   7.604   3.332  0.1188  0.1172 -0.1195
 4443SOL    HW114770   7.215   7.625   3.246  1.1726 -0.5918  0.1164
 4443SOL    HW214771   7.255   7.609   3.391 -0.7048  1.2346  0.8958
 4444SOL     OW14772   0.821   0.219   7.937  0.9747  0.7844  0.6459
 4444SOL    HW114773   0.896   0.176   7.894  1.0461  1.7138 -0.2062
 4444SOL    HW214774   0.746   0.198   7.881  0.4309 -0.7511  1.8905
 4445SOL     OW14775   1.899   4.618   2.148 -0.0872  0.1920  0.2407
 4445SOL    HW114776   1.892   4.529   2.183 -0.2232 -0.4700 -1.3907
 4445SOL    HW214777   1.930   4.606   2.058 -0.3743  1.7867 -0.0950
 4446SOL     OW14778   1.163   1.924   0.379 -0.6541  0.2884 -0.4555
 4446SOL    HW114779   1.209   1.851   0.419 -1.8173 -0.0240  0.3660
 4446SOL    HW214780   1.231   1.990   0.364  0.0018  0.0170  1.1280
 4447SOL     OW14781   4.360   1.693   9.877  0.6105  0.2662 -0.2028
 4447SOL    HW114782   4.434   1.716   9.821 -0.0483  0.5917 -0.9684
 4447SOL    HW214783   4.301   1.643   9.820 -0.0065  0.4703  0.2390
 4448SOL     OW14784   2.641   5.407   5.015  0.3264 -0.0419 -0.8364
 4448SOL    HW114785   2.584   5.429   4.940  0.5854 -1.0035 -1.3362
 4448SOL    HW214786   2.604   5.326   5.050 -0.5779  1.0685  0.9278
 4449SOL     OW14787   4.659   4.090   9.638  0.1410 -0.0120 -0.2431
 4449SOL    HW114788   4.671   4.036   9.560 -0.0001 -0.3356 -0.0410
 4449SOL    HW214789   4.678   4.032   9.711  0.0827  0.2372 -0.0279
 4450SOL     OW14790   7.895   4.139   5.664  0.0851 -0.9586 -0.0754
 4450SOL    HW114791   7.805   4.158   5.639  0.7845 -0.0281 -2.1007
 4450SOL    HW214792   7.902   4.044   5.655 -0.2088 -0.8509 -1.8316
 4451SOL     OW14793   6.844   3.465  10.216  0.4010 -0.1103  0.0499
 4451SOL    HW114794   6.926   3.423  10.241  0.4661  0.5791  1.0410
 4451SOL    HW214795   6.842   3.458  10.120  1.0838 -1.0828  0.0895
 4452SOL     OW14796   2.678   2.904  11.170  0.0436  0.1204 -0.4657
 4452SOL    HW114797   2.686   2.861  11.255 -0.6796  0.0404 -0.4280
 4452SOL    HW214798   2.721   2.845  11.108  0.5263  0.1534 -0.1689
 4453SOL     OW14799   0.315   0.715   4.907 -0.7061 -0.0962 -0.3013
 4453SOL    HW114800   0.338   0.775   4.978 -1.6265 -0.8944  0.7089
 4453SOL    HW214801   0.351   0.756   4.828  1.6844  0.0789  0.8046
 4454SOL     OW14802   2.024   7.383   0.804 -0.2189  0.0462  0.1753
 4454SOL    HW114803   2.041   7.455   0.865  0.1836 -0.2111  0.3691
 4454SOL    HW214804   2.110   7.351   0.781 -0.4111 -0.6154  0.3719
 4455SOL     OW14805   7.900   5.772   9.249 -0.0157 -0.1499 -0.7127
 4455SOL    HW114806   7.950   5.698   9.215  1.0763  0.1964  0.1011
 4455SOL    HW214807   7.949   5.802   9.325 -1.6589 -0.0106  0.3365
 4456SOL     OW14808   1.460   2.312   0.062 -0.2101 -0.0158 -0.7103
 4456SOL    HW114809   1.407   2.390   0.045 -1.4937 -0.2783  1.6562
 4456SOL    HW214810   1.509   2.333   0.141 -0.6886 -1.6153  0.0566
 4457SOL     OW14811   0.413   4.614  10.820  0.3619 -0.0839  0.0378
 4457SOL    HW114812   0.448   4.525  10.825 -0.3393 -0.4558 -1.1621
 4457SOL    HW214813   0.326   4.608  10.860 -0.5523 -0.4666 -1.8574
 4458SOL     OW14814   5.594   3.861   7.968  0.2626 -0.5313  0.3549
 4458SOL    HW114815   5.559   3.821   8.048  1.5105 -1.6293  0.3858
 4458SOL    HW214816   5.622   3.949   7.995  1.9951 -1.3896  1.5174
 4459SOL     OW14817   4.740   0.675   0.448  0.5884 -0.2605 -0.3754
 4459SOL    HW114818   4.695   0.599   0.483  2.8873 -1.2558  0.6617
 4459SOL    HW214819   4.676   0.717   0.391 -1.9477 -0.9458  1.7538
 4460SOL     OW14820   3.913   4.645   5.782  0.1403  0.1585  0.3328
 4460SOL    HW114821   3.966   4.566   5.791 -1.7776 -1.0733  1.1324
 4460SOL    HW214822   3.931   4.695   5.861  1.2074  0.4735 -0.0853
 4461SOL     OW14823   0.346   2.838   7.453  0.5565 -0.1496 -0.2115
 4461SOL    HW114824   0.329   2.900   7.524  0.3950 -0.6520  0.1932
 4461SOL    HW214825   0.265   2.789   7.444  0.3895  0.2764 -1.1222
 4462SOL     OW14826   5.291   3.645  12.021 -0.9699 -0.1353  0.0811
 4462SOL    HW114827   5.333   3.591  12.088 -0.4389 -0.3363 -0.4009
 4462SOL    HW214828   5.276   3.585  11.948  0.4997  0.5454 -0.8295
 4463SOL     OW14829   5.736   0.323   6.242  0.1144  0.2479 -0.2878
 4463SOL    HW114830   5.729   0.290   6.332 -0.0808 -1.4007 -0.8798
 4463SOL    HW214831   5.645   0.331   6.213  0.1737  0.9287 -0.2974
 4464SOL     OW14832   2.162   3.982  11.315  0.5356  0.1036 -0.1777
 4464SOL    HW114833   2.077   3.940  11.325  0.0041  0.4172 -2.6991
 4464SOL    HW214834   2.199   3.983  11.403 -0.9643 -2.3283  0.5807
 4465SOL     OW14835   2.501   4.563   9.409  0.7429  0.6125  0.5223
 4465SOL    HW114836   2.487   4.655   9.432  1.6125  0.4745  1.7002
 4465SOL    HW214837   2.484   4.515   9.489  2.0008 -0.0757  0.4121
 4466SOL     OW14838   1.395   0.817   8.136 -0.2019  0.2388 -0.2786
 4466SOL    HW114839   1.473   0.783   8.092  0.7159 -0.3313  1.6876
 4466SOL    HW214840   1.387   0.907   8.104  1.1127  0.2259 -0.6922
 4467SOL     OW14841   2.213   5.380   3.114  0.0479  0.4280 -0.1048
 4467SOL    HW114842   2.134   5.355   3.162  0.6905 -0.2195  0.6426
 4467SOL    HW214843   2.209   5.476   3.110 -1.9349  0.3514 -2.1256
 4468SOL     OW14844   5.392   2.459   3.009  0.0152 -0.1846 -0.6617
 4468SOL    HW114845   5.361   2.410   3.085  1.9873  0.6009  0.7462
 4468SOL    HW214846   5.344   2.542   3.012 -0.2843 -0.3618 -0.5642
 4469SOL     OW14847   2.660   4.191   3.539 -0.1471 -0.6813  0.0210
 4469SOL    HW114848   2.570   4.165   3.562 -0.1616 -0.4521  0.2217
 4469SOL    HW214849   2.658   4.286   3.539 -0.1842 -0.6756 -1.1000
 4470SOL     OW14850   2.864   4.214   2.507 -0.2332  0.5778 -0.2561
 4470SOL    HW114851   2.925   4.206   2.581 -0.1525  0.0030 -0.3835
 4470SOL    HW214852   2.906   4.278   2.449  1.4714 -1.5728 -1.5140
 4471SOL     OW14853   2.868   2.808   3.269 -0.4629 -0.2798 -0.2407
 4471SOL    HW114854   2.855   2.902   3.261  0.9820 -0.1372 -1.1528
 4471SOL    HW214855   2.962   2.797   3.281 -0.6395 -1.5934  0.0846
 4472SOL     OW14856   2.991   0.794   9.106  0.3799 -0.3911 -0.2565
 4472SOL    HW114857   3.082   0.803   9.134  0.5522  0.2476 -0.9925
 4472SOL    HW214858   2.989   0.831   9.018 -0.9696  1.3050  0.4192
 4473SOL     OW14859   7.043   1.475   6.464  0.0620  0.2169  0.1438
 4473SOL    HW114860   7.031   1.447   6.374 -0.4673  2.2279 -0.4585
 4473SOL    HW214861   6.985   1.551   6.474  0.7814  0.5997  1.9071
 4474SOL     OW14862   3.172   6.356   6.535 -0.5104  0.2366 -0.2827
 4474SOL    HW114863   3.203   6.292   6.471 -0.6632 -0.9376  0.7843
 4474SOL    HW214864   3.085   6.324   6.560 -0.5219  0.7728  0.3770
 4475SOL     OW14865   0.809   3.862   2.622  0.2660  0.0969 -0.0009
 4475SOL    HW114866   0.881   3.920   2.599  0.5311 -0.4129 -0.4480
 4475SOL    HW214867   0.824   3.782   2.573  0.5848 -0.8400  1.5471
 4476SOL     OW14868   5.687   6.685  12.392  0.3860 -0.3515 -0.2719
 4476SOL    HW114869   5.667   6.770  12.430 -0.5396 -0.9543  0.6208
 4476SOL    HW214870   5.611   6.664  12.338 -0.0869 -1.3065  0.7444
 4477SOL     OW14871   5.922   2.697  11.153  0.1429 -0.6257 -0.3428
 4477SOL    HW114872   5.913   2.683  11.247  0.2205  0.7905 -0.0960
 4477SOL    HW214873   5.907   2.611  11.114 -2.3391 -0.8073  0.7894
 4478SOL     OW14874   4.297   0.808   3.022  0.0740 -0.1094  0.1730
 4478SOL    HW114875   4.272   0.756   3.098 -2.1687 -2.1484 -1.7786
 4478SOL    HW214876   4.222   0.864   3.004 -0.0903 -0.7351 -1.3206
 4479SOL     OW14877   3.502   2.314   0.921  0.3493  0.7684  0.1038
 4479SOL    HW114878   3.479   2.383   0.983  0.6679  1.0252 -0.0623
 4479SOL    HW214879   3.486   2.232   0.969  1.2141  0.9698  0.7550
 4480SOL     OW14880   1.570   1.127   6.707  0.3859 -0.6097 -0.1627
 4480SOL    HW114881   1.480   1.153   6.687  0.2137 -1.6735 -0.8693
 4480SOL    HW214882   1.568   1.105   6.800  0.1501  0.2948  0.0493
 4481SOL     OW14883   0.759   1.399  12.439  0.5967  0.3410  0.1734
 4481SOL    HW114884   0.673   1.440  12.433  0.3848 -0.2009 -0.7049
 4481SOL    HW214885   0.819   1.463  12.401  0.1032 -0.5661 -2.3424
 4482SOL     OW14886   3.261   7.282  10.131  0.6630 -0.4039  0.3911
 4482SOL    HW114887   3.254   7.373  10.158  0.5981 -0.4101  0.3952
 4482SOL    HW214888   3.336   7.248  10.180  1.6339  0.0544 -0.7336
 4483SOL     OW14889   0.157   0.973   0.863 -0.4910 -0.1823  0.1076
 4483SOL    HW114890   0.234   0.981   0.920  1.4646 -0.7898 -2.2474
 4483SOL    HW214891   0.116   1.059   0.864  0.5147  0.3016  1.0568
 4484SOL     OW14892   4.119   2.768   0.691 -0.2282  0.0874 -0.1825
 4484SOL    HW114893   4.034   2.775   0.648  0.8873  0.3638 -2.4332
 4484SOL    HW214894   4.105   2.700   0.758 -2.2963  0.3800 -0.2433
 4485SOL     OW14895   4.303   6.807   3.535  0.3938 -0.6369  0.0089
 4485SOL    HW114896   4.374   6.851   3.488 -0.1405  0.4751  0.2243
 4485SOL    HW214897   4.234   6.797   3.469  0.5785 -1.3576 -0.0919
 4486SOL     OW14898   3.226   5.242   9.932  0.7891 -0.4621  0.5987
 4486SOL    HW114899   3.261   5.162   9.972  1.0183  0.2988  1.9581
 4486SOL    HW214900   3.134   5.243   9.959  1.1292  0.4419  1.7465
 4487SOL     OW14901   3.017   6.642   0.299  0.3879 -0.1385 -0.4365
 4487SOL    HW114902   3.109   6.615   0.296  0.2802 -0.9148  1.5846
 4487SOL    HW214903   2.972   6.571   0.345 -0.9689  0.8404 -0.1581
 4488SOL     OW14904   1.562   2.970   5.524 -0.2314  0.1677 -0.1353
 4488SOL    HW114905   1.502   2.908   5.565 -0.5057  0.7589  0.3769
 4488SOL    HW214906   1.572   2.938   5.434 -0.7685 -0.3223 -0.0280
 4489SOL     OW14907   1.410   7.082   2.463  0.2895  0.0219  0.4613
 4489SOL    HW114908   1.456   6.999   2.477  2.0657  0.7515 -0.7026
 4489SOL    HW214909   1.318   7.061   2.476  0.5031 -2.5529 -1.4839
 4490SOL     OW14910   6.231   7.226   1.172 -0.5058  0.2129 -0.6867
 4490SOL    HW114911   6.167   7.170   1.128  0.3851 -0.5173 -1.0710
 4490SOL    HW214912   6.294   7.248   1.104  0.3264 -0.0876 -0.0231
 4491SOL     OW14913   4.840   0.134  11.164  0.0938  0.0705 -0.0842
 4491SOL    HW114914   4.850   0.166  11.074  0.1382  1.1307  0.2803
 4491SOL    HW214915   4.918   0.080  11.179  0.5288  0.5967 -0.3985
 4492SOL     OW14916   6.748   7.395   7.115  0.0362  0.4432 -0.1082
 4492SOL    HW114917   6.748   7.469   7.177  0.0502  0.7322 -0.4483
 4492SOL    HW214918   6.712   7.322   7.165 -2.4124  1.2869 -0.4549
 4493SOL     OW14919   6.848   3.970   6.266 -0.3262 -0.3671 -0.5268
 4493SOL    HW114920   6.842   4.026   6.189 -1.7426  0.0765 -0.1198
 4493SOL    HW214921   6.789   4.010   6.330  2.2635  0.4511  1.5639
 4494SOL     OW14922   4.585   1.756   5.024 -0.0526  0.2733 -0.0878
 4494SOL    HW114923   4.635   1.731   4.946 -1.2992  1.8350 -1.4547
 4494SOL    HW214924   4.634   1.829   5.061 -0.0663  0.2598 -0.0430
 4495SOL     OW14925   6.513   4.283   8.269 -0.0082  0.2338  0.1686
 4495SOL    HW114926   6.505   4.304   8.362 -1.0126 -1.8776  0.6323
 4495SOL    HW214927   6.568   4.205   8.266 -2.0000 -1.2528 -0.6946
 4496SOL     OW14928   3.716   6.757  10.867  0.2500  0.8010 -0.5227
 4496SOL    HW114929   3.627   6.737  10.839  1.1795 -1.6564 -2.1654
 4496SOL    HW214930   3.733   6.695  10.938  1.0860  0.2226 -1.2074
 4497SOL     OW14931   2.202   0.666   1.596 -0.5738 -0.5508 -0.0506
 4497SOL    HW114932   2.294   0.652   1.573 -0.2900  0.0838  0.6852
 4497SOL    HW214933   2.179   0.592   1.651 -0.0671  0.0416  0.9841
 4498SOL     OW14934   2.554   5.634   2.444 -0.1492 -0.4693  0.0236
 4498SOL    HW114935   2.492   5.625   2.517 -1.5609  1.1526 -0.8995
 4498SOL    HW214936   2.639   5.611   2.482 -0.2867  3.1017  3.1114
 4499SOL     OW14937   7.771   4.562   2.119  0.0832 -0.1273 -0.0440
 4499SOL    HW114938   7.715   4.571   2.042 -1.7069  0.1171  1.2149
 4499SOL    HW214939   7.788   4.468   2.126  0.8228 -0.0872 -1.0833
 4500SOL     OW14940   4.190   2.607   8.980 -0.5347 -0.2882  0.2920
 4500SOL    HW114941   4.205   2.655   9.061  0.7033 -1.5682  0.8637
 4500SOL    HW214942   4.215   2.670   8.911  4.5127 -0.9790  1.0815
 4501SOL     OW14943   0.649   0.699   1.331  0.3785 -0.1464  0.2374
 4501SOL    HW114944   0.726   0.735   1.287  0.5568  0.5054  1.0629
 4501SOL    HW214945   0.599   0.775   1.358 -0.8051 -0.5580 -0.6690
 4502SOL     OW14946   5.254   2.506   6.769  0.6589  0.4686  0.1303
 4502SOL    HW114947   5.302   2.588   6.772  0.0648  0.8059  1.0266
 4502SOL    HW214948   5.188   2.515   6.838 -0.8328  0.1197 -1.1999
 4503SOL     OW14949   4.281   5.909   8.654 -0.4998 -0.3946 -0.5000
 4503SOL    HW114950   4.187   5.925   8.648 -1.3045 -3.4923  1.5381
 4503SOL    HW214951   4.308   5.955   8.734 -0.9806 -1.9458  0.5897
 4504SOL     OW14952   0.517   7.682   6.143 -0.3975 -0.2764  0.5141
 4504SOL    HW114953   0.472   7.693   6.059 -0.2345 -1.5612  0.2428
 4504SOL    HW214954   0.509   7.589   6.162  1.4272 -0.3957  0.8635
 4505SOL     OW14955   5.547   5.353   8.175 -0.2271 -0.0786  1.1826
 4505SOL    HW114956   5.561   5.400   8.258  0.1323  1.9260  0.0552
 4505SOL    HW214957   5.632   5.315   8.155  0.4571  1.6975  0.4667
 4506SOL     OW14958   2.272   1.954   8.958 -0.5221 -0.1465 -0.0136
 4506SOL    HW114959   2.329   2.031   8.954  1.0346 -1.2853 -1.9892
 4506SOL    HW214960   2.307   1.903   9.031  0.2598 -0.2538 -0.4431
 4507SOL     OW14961   2.977   6.942  10.269 -0.4807  0.2636 -0.5022
 4507SOL    HW114962   2.990   7.018  10.213  0.5118 -0.3153 -1.0855
 4507SOL    HW214963   2.993   6.867  10.212 -1.4155 -0.3952  0.0722
 4508SOL     OW14964   7.743   0.715  11.750 -0.0434  0.2001 -0.2388
 4508SOL    HW114965   7.783   0.628  11.760 -0.9109 -0.2706 -0.7286
 4508SOL    HW214966   7.652   0.703  11.777 -0.7082  0.4522 -2.2236
 4509SOL     OW14967   5.624   0.460   1.826 -0.3372  0.0781  0.3275
 4509SOL    HW114968   5.575   0.536   1.794 -0.3871 -0.4064 -0.7861
 4509SOL    HW214969   5.678   0.433   1.752  1.4964  0.4659  1.4436
 4510SOL     OW14970   0.647   2.529   6.151 -0.0660  0.2452  0.6709
 4510SOL    HW114971   0.736   2.565   6.158  0.9921 -1.4049 -2.3506
 4510SOL    HW214972   0.656   2.438   6.180 -0.7100  0.0024  0.1381
 4511SOL     OW14973   5.752   0.734   4.245  0.3760  0.3208 -0.2048
 4511SOL    HW114974   5.732   0.642   4.263 -0.0182  0.4277 -0.0992
 4511SOL    HW214975   5.739   0.779   4.329 -0.6549  0.6791 -0.5339
 4512SOL     OW14976   2.602   0.438   7.625 -0.1593 -0.3523  0.6849
 4512SOL    HW114977   2.645   0.500   7.684  0.6936 -0.1663 -0.1088
 4512SOL    HW214978   2.548   0.384   7.683 -0.1589  0.4913  1.5098
 4513SOL     OW14979   6.461   2.943  12.051 -0.1292  0.9350  0.2279
 4513SOL    HW114980   6.397   2.888  12.096 -1.9818  2.7706 -0.0132
 4513SOL    HW214981   6.473   3.018  12.109  1.4450  0.8998  0.0088
 4514SOL     OW14982   5.109   7.663   4.259 -0.3115  0.5102 -0.6831
 4514SOL    HW114983   5.174   7.704   4.202  0.1485 -0.4544 -0.8754
 4514SOL    HW214984   5.117   7.709   4.342 -1.0825  2.0311 -1.4041
 4515SOL     OW14985   2.780   3.624   6.841 -0.7909  0.3556 -0.0342
 4515SOL    HW114986   2.790   3.658   6.752 -0.8304 -1.1035 -0.6271
 4515SOL    HW214987   2.836   3.546   6.843 -3.0384 -1.3425  0.2604
 4516SOL     OW14988   0.508   6.958   4.906 -0.3270  0.1108 -0.1614
 4516SOL    HW114989   0.431   7.012   4.890  0.4217  1.3142  0.1506
 4516SOL    HW214990   0.533   6.978   4.997 -1.0588 -2.1149  0.6060
 4517SOL     OW14991   1.702   1.394  10.265 -0.1944 -0.5135 -0.1150
 4517SOL    HW114992   1.792   1.363  10.276  0.4863  0.9104 -1.3301
 4517SOL    HW214993   1.665   1.392  10.353  1.0997 -0.8809  0.4445
 4518SOL     OW14994   7.211   1.130   6.824 -0.7072 -0.0953  0.1842
 4518SOL    HW114995   7.178   1.180   6.748 -1.2084  0.4391  0.7378
 4518SOL    HW214996   7.154   1.054   6.829 -0.9054  0.0547  0.2357
 4519SOL     OW14997   4.400   1.236   1.918  0.7454 -0.4696  0.2688
 4519SOL    HW114998   4.335   1.167   1.906  0.4739 -0.2137  0.2642
 4519SOL    HW214999   4.356   1.302   1.972  0.6001  0.2423 -0.6870
 4520SOL     OW15000   3.270   5.373   2.269 -0.0995 -0.5466 -0.0734
 4520SOL    HW115001   3.244   5.300   2.213  1.5041  0.9091 -2.9558
 4520SOL    HW215002   3.336   5.337   2.327  1.1300 -1.3122 -1.8763
 4521SOL     OW15003   4.897   5.972   0.813  0.3238 -0.3361  0.5377
 4521SOL    HW115004   4.840   5.896   0.804 -0.2463  0.2356 -1.0805
 4521SOL    HW215005   4.905   5.985   0.907 -1.1554 -1.2224  0.8185
 4522SOL     OW15006   7.400   0.452   5.949  0.1847 -0.3374 -0.3126
 4522SOL    HW115007   7.399   0.543   5.917  1.5036  0.3702  1.4495
 4522SOL    HW215008   7.310   0.436   5.976  0.5561  1.8846  2.8308
 4523SOL     OW15009   4.887   6.267  12.051 -0.4680 -0.6863  0.2950
 4523SOL    HW115010   4.868   6.341  11.994 -0.0989 -0.8655 -0.0581
 4523SOL    HW215011   4.848   6.192  12.007  1.2983 -1.1207 -0.6023
 4524SOL     OW15012   1.887   0.179  11.815 -0.4448  0.3867  0.5380
 4524SOL    HW115013   1.946   0.232  11.761 -1.0076  1.0054  0.5098
 4524SOL    HW215014   1.885   0.094  11.772  1.3191 -0.0273  1.1810
 4525SOL     OW15015   7.357   5.933   4.342 -0.5535 -0.5818 -0.3322
 4525SOL    HW115016   7.398   6.004   4.392 -0.8446 -0.0324 -0.8732
 4525SOL    HW215017   7.428   5.898   4.288 -0.2237 -1.2086  0.4642
 4526SOL     OW15018   0.967   2.542   1.388 -0.2423 -0.0613 -0.1651
 4526SOL    HW115019   0.977   2.447   1.393 -0.7433 -0.0591  1.3680
 4526SOL    HW215020   0.873   2.557   1.393 -0.0997  0.5602  1.1488
 4527SOL     OW15021   0.009   2.110   6.852 -0.7440  0.3042 -0.5197
 4527SOL    HW115022   0.062   2.104   6.931  0.2363  0.9452 -1.1127
 4527SOL    HW215023  -0.081   2.120   6.885 -0.5243 -0.7773  0.4896
 4528SOL     OW15024   4.116   4.973   7.919  0.4725 -0.7900  0.4863
 4528SOL    HW115025   4.073   5.009   7.997  1.3779 -0.5690  0.8980
 4528SOL    HW215026   4.192   4.925   7.953  0.2242 -1.6902 -0.1815
 4529SOL     OW15027   7.170   6.421   9.252  0.4387  0.1303 -0.3304
 4529SOL    HW115028   7.197   6.478   9.324  0.3348 -0.8060  0.4644
 4529SOL    HW215029   7.191   6.333   9.282  0.1381 -0.2915 -1.3350
 4530SOL     OW15030   7.350   4.643   3.438 -0.7124  0.5133  0.4125
 4530SOL    HW115031   7.310   4.707   3.497 -2.3419  0.0200 -0.1085
 4530SOL    HW215032   7.407   4.695   3.382 -1.0275  1.3389  0.8397
 4531SOL     OW15033   2.866   1.053   8.624 -0.5728 -0.6204  0.5326
 4531SOL    HW115034   2.853   1.137   8.667  0.5220  0.4987 -1.2180
 4531SOL    HW215035   2.793   1.046   8.562  0.6047  0.2228 -1.0255
 4532SOL     OW15036   6.753   4.431   2.647  0.6838 -0.4254 -0.1066
 4532SOL    HW115037   6.773   4.340   2.625  0.0871 -0.8855  1.1635
 4532SOL    HW215038   6.682   4.455   2.587  0.2964 -1.0605  0.0929
 4533SOL     OW15039   6.431   5.320   0.376 -0.4772 -0.2577 -0.7490
 4533SOL    HW115040   6.452   5.412   0.359  0.5809 -0.3813 -0.1759
 4533SOL    HW215041   6.361   5.299   0.313 -0.4426  0.8154 -1.1587
 4534SOL     OW15042   4.328   0.775   1.717 -0.6132 -0.1848 -0.0300
 4534SOL    HW115043   4.374   0.691   1.716  0.2432  0.2712 -0.8992
 4534SOL    HW215044   4.235   0.751   1.711 -0.3081 -1.0679 -2.6369
 4535SOL     OW15045   3.482   0.761   8.274 -0.2399 -0.2384 -0.1971
 4535SOL    HW115046   3.491   0.669   8.249 -0.7956 -0.0201 -1.2182
 4535SOL    HW215047   3.418   0.797   8.213  0.6873  1.0757 -0.4328
 4536SOL     OW15048   0.991   6.657   5.427  0.0691 -0.2322  0.0155
 4536SOL    HW115049   1.069   6.632   5.476  0.4153  1.1765  0.2238
 4536SOL    HW215050   1.021   6.725   5.367 -0.2842 -2.1293 -2.4102
 4537SOL     OW15051   7.166   1.895   4.928 -0.2968 -0.0497  0.4919
 4537SOL    HW115052   7.158   1.943   5.010  2.1787 -0.6071  1.1589
 4537SOL    HW215053   7.193   1.807   4.954  0.3854 -0.2902 -0.8925
 4538SOL     OW15054   4.287   7.652   1.507 -0.4062  0.0895  0.6570
 4538SOL    HW115055   4.313   7.645   1.599  0.4512  0.5197  0.4588
 4538SOL    HW215056   4.193   7.634   1.507 -0.2761 -0.6506  1.5201
 4539SOL     OW15057   5.778   7.112   4.528  0.1100 -0.1054 -0.0202
 4539SOL    HW115058   5.753   7.020   4.524  2.0973 -0.7000 -0.0208
 4539SOL    HW215059   5.764   7.137   4.619  0.3530 -0.6624  0.1733
 4540SOL     OW15060   5.471   1.057   7.306 -0.1298  0.0431 -0.0191
 4540SOL    HW115061   5.558   1.070   7.269 -0.0352 -0.1626  0.1329
 4540SOL    HW215062   5.483   1.068   7.400 -0.3235  0.3063 -0.0236
 4541SOL     OW15063   7.674   4.099   6.531  0.2578 -0.2881  0.3332
 4541SOL    HW115064   7.679   4.116   6.437 -0.4758  0.7962  0.4720
 4541SOL    HW215065   7.764   4.108   6.562  0.8304 -2.3984 -0.5048
 4542SOL     OW15066   0.291   6.684  10.470 -0.0230  0.5161 -0.1873
 4542SOL    HW115067   0.361   6.685  10.405  0.5914  1.0411  0.4704
 4542SOL    HW215068   0.332   6.648  10.548 -0.6632  0.2261  0.0160
 4543SOL     OW15069   7.669   4.883  10.548 -0.1670  0.3064 -0.4147
 4543SOL    HW115070   7.616   4.954  10.511 -1.2482 -0.0425  0.4075
 4543SOL    HW215071   7.746   4.926  10.584 -0.7044  1.0316 -0.1192
 4544SOL     OW15072   7.924   5.781   7.546 -0.5249  0.0078  0.0183
 4544SOL    HW115073   7.841   5.740   7.573 -0.6884  0.6498  0.5231
 4544SOL    HW215074   7.966   5.716   7.490 -0.6579 -0.9615  1.0051
 4545SOL     OW15075   2.425   0.716   6.268 -0.4494  0.1213 -0.2217
 4545SOL    HW115076   2.407   0.755   6.354 -0.7064  0.8507 -0.6030
 4545SOL    HW215077   2.357   0.752   6.211  0.1553  0.1979 -0.9005
 4546SOL     OW15078   6.939   4.422   0.999 -0.2563  0.5914  0.3230
 4546SOL    HW115079   7.032   4.439   0.983 -0.9278  2.4885 -2.1034
 4546SOL    HW215080   6.920   4.342   0.950 -0.3770  1.5607 -1.2830
 4547SOL     OW15081   5.953   7.817  12.083  0.4938  0.3635 -0.1736
 4547SOL    HW115082   6.010   7.888  12.112  0.7326  0.1443 -0.1095
 4547SOL    HW215083   5.928   7.772  12.164  0.9334 -0.0755 -0.2800
 4548SOL     OW15084   0.586   3.814  11.749 -0.2047 -0.1783  0.7582
 4548SOL    HW115085   0.612   3.812  11.657  0.1252  1.3064  0.7918
 4548SOL    HW215086   0.564   3.906  11.766  0.5205 -0.2631  2.3636
 4549SOL     OW15087   6.202   0.836  10.364 -0.2987  0.5916 -0.7658
 4549SOL    HW115088   6.296   0.845  10.350 -0.2037  0.6063 -0.1508
 4549SOL    HW215089   6.164   0.913  10.320 -0.2528 -0.6159 -3.0641
 4550SOL     OW15090   7.372   3.922  12.019  0.0467 -0.3641  0.1494
 4550SOL    HW115091   7.390   3.831  12.041  1.6342 -0.5090 -1.4699
 4550SOL    HW215092   7.451   3.969  12.047 -0.8749  0.6106  1.2475
 4551SOL     OW15093   2.910   6.629   1.215 -0.4081 -0.4148 -0.1175
 4551SOL    HW115094   2.997   6.638   1.256 -0.2041  2.5945 -0.9583
 4551SOL    HW215095   2.853   6.685   1.268 -1.8096 -2.0678  0.1951
 4552SOL     OW15096   2.203   4.954   8.520  0.4283 -0.0417 -0.0939
 4552SOL    HW115097   2.108   4.953   8.530  0.0819  0.5170 -2.7292
 4552SOL    HW215098   2.222   4.881   8.461  1.1647  2.0780 -2.6203
 4553SOL     OW15099   4.712   4.896   7.679  0.0419  0.1185 -0.3495
 4553SOL    HW115100   4.768   4.925   7.606  0.2439  0.0842 -0.2066
 4553SOL    HW215101   4.623   4.917   7.649 -0.0647 -1.7038 -1.4695
 4554SOL     OW15102   2.565   6.963   2.875 -0.1156 -0.7350 -0.4413
 4554SOL    HW115103   2.531   7.021   2.942  0.5420 -0.2129 -0.5472
 4554SOL    HW215104   2.660   6.976   2.878 -0.1130 -0.2208 -1.8856
 4555SOL     OW15105   1.112   5.124   8.922  0.2586 -0.0925  0.3152
 4555SOL    HW115106   1.058   5.203   8.933  0.3393  0.3112 -1.7773
 4555SOL    HW215107   1.172   5.145   8.851  0.4793 -1.9350 -0.1113
 4556SOL     OW15108   2.873   6.450   3.820  0.6286 -0.3634  0.0342
 4556SOL    HW115109   2.853   6.386   3.751  0.3832 -2.6295  2.0961
 4556SOL    HW215110   2.787   6.473   3.856  0.8689 -2.6408  2.4169
 4557SOL     OW15111   5.115   5.170   6.334 -0.2991  0.2351  0.0248
 4557SOL    HW115112   5.098   5.179   6.241 -1.6137  1.9396  0.3841
 4557SOL    HW215113   5.193   5.223   6.350  1.0064 -1.4659 -0.3386
 4558SOL     OW15114   4.567   5.765   8.161 -0.8459  0.9393  0.6185
 4558SOL    HW115115   4.521   5.695   8.207  0.5809 -0.4473  0.0147
 4558SOL    HW215116   4.627   5.720   8.101  1.5709  2.6269  1.5985
 4559SOL     OW15117   4.450   6.914  11.933  0.2404 -0.0937 -0.1445
 4559SOL    HW115118   4.533   6.903  11.979  0.4163 -1.8818 -0.8191
 4559SOL    HW215119   4.388   6.860  11.983  0.1334 -0.9769 -1.1960
 4560SOL     OW15120   4.275   6.734  12.060  0.1281  0.1422 -0.3814
 4560SOL    HW115121   4.268   6.724  12.155 -0.5668  0.7980 -0.3536
 4560SOL    HW215122   4.188   6.765  12.033  0.1303 -0.6426 -1.3142
 4561SOL     OW15123   2.732   5.155   2.720  0.5260 -0.1801  0.4657
 4561SOL    HW115124   2.669   5.209   2.672  1.3805  0.7038  0.3104
 4561SOL    HW215125   2.681   5.118   2.792 -0.6922 -1.2682 -0.9113
 4562SOL     OW15126   4.541   0.103   6.817  0.2308  0.0026  0.0672
 4562SOL    HW115127   4.554   0.051   6.896 -1.8048 -0.0476  0.4415
 4562SOL    HW215128   4.506   0.187   6.849  0.6726  0.5010 -0.7126
 4563SOL     OW15129   7.268   5.347  12.378  0.0789 -0.1371 -0.0226
 4563SOL    HW115130   7.239   5.427  12.421 -0.4443 -0.5956  0.5140
 4563SOL    HW215131   7.237   5.355  12.287 -1.1580 -0.3042  0.3669
 4564SOL     OW15132   1.895   7.539   3.657 -0.3698  0.2773 -0.1235
 4564SOL    HW115133   1.799   7.546   3.660 -0.3704  2.1252 -2.0799
 4564SOL    HW215134   1.925   7.611   3.712 -0.2083  2.5306 -2.9678
 4565SOL     OW15135   2.773   0.832  10.001  0.4949 -0.0720 -0.0124
 4565SOL    HW115136   2.713   0.813  10.073  1.4168 -1.1815  0.4796
 4565SOL    HW215137   2.750   0.769   9.933  1.6801 -1.1276  0.5317
 4566SOL     OW15138   4.662   1.236   4.093  0.0914  0.0460 -0.0288
 4566SOL    HW115139   4.664   1.149   4.133  0.7629 -0.3405 -0.8721
 4566SOL    HW215140   4.569   1.255   4.080 -0.2078  0.5605  2.4676
 4567SOL     OW15141   0.130   4.589   1.969 -0.3128 -0.2389  0.0066
 4567SOL    HW115142   0.036   4.606   1.957 -0.5802 -1.4339  0.2633
 4567SOL    HW215143   0.142   4.500   1.936  1.0498  0.4433 -1.4973
 4568SOL     OW15144   7.527   0.112   1.973 -0.8274 -0.3077  0.2295
 4568SOL    HW115145   7.433   0.128   1.960 -1.3009 -0.7421  2.7092
 4568SOL    HW215146   7.567   0.199   1.963 -1.5087 -0.0480 -0.4467
 4569SOL     OW15147   4.641   2.391   9.695  0.1301 -0.0172  0.3390
 4569SOL    HW115148   4.647   2.393   9.599  2.8925  0.0256  0.4378
 4569SOL    HW215149   4.549   2.413   9.713 -0.3952  0.3187 -2.2602
 4570SOL     OW15150   6.885   0.086   7.207 -0.0448 -0.1710 -0.1137
 4570SOL    HW115151   6.938   0.161   7.237 -0.0154  0.0885 -0.7993
 4570SOL    HW215152   6.807   0.126   7.169  0.3595 -0.4343 -1.2653
 4571SOL     OW15153   2.002   3.806   5.537 -0.7940  0.3731  0.0276
 4571SOL    HW115154   2.077   3.757   5.571 -0.5350  1.3984  0.9780
 4571SOL    HW215155   1.940   3.738   5.510 -0.7860 -0.4984  2.0366
 4572SOL     OW15156   4.915   4.453  10.061  0.6648 -0.0941 -0.4638
 4572SOL    HW115157   4.833   4.404  10.070  1.3258 -1.3203 -0.8952
 4572SOL    HW215158   4.918   4.509  10.138  0.2405 -1.2957  0.4583
 4573SOL     OW15159   7.114   6.549   4.477  0.2032 -0.2767 -0.0157
 4573SOL    HW115160   7.091   6.602   4.401  0.0110 -1.1127 -0.5459
 4573SOL    HW215161   7.086   6.460   4.455  0.2908 -0.5655  0.9637
 4574SOL     OW15162   0.566   5.325  10.749  0.4215 -0.3374 -0.7034
 4574SOL    HW115163   0.661   5.327  10.764  0.3373 -0.6125 -0.0974
 4574SOL    HW215164   0.529   5.373  10.822  0.0640 -0.7106 -0.6342
 4575SOL     OW15165   7.658   5.294   4.093  0.1927  0.0107 -0.2375
 4575SOL    HW115166   7.678   5.300   4.187 -1.0876 -1.7330  0.1995
 4575SOL    HW215167   7.641   5.384   4.066  1.1941  0.6177  1.0418
 4576SOL     OW15168   0.094   3.119  10.784 -0.0661 -0.0626 -0.0519
 4576SOL    HW115169   0.021   3.160  10.829 -0.6563 -1.0691 -0.0540
 4576SOL    HW215170   0.098   3.162  10.698 -1.6518 -1.0414 -0.6483
 4577SOL     OW15171   1.756   1.068   5.698 -0.1215  0.1482  0.3921
 4577SOL    HW115172   1.838   1.097   5.659  0.2456 -0.1464  0.9252
 4577SOL    HW215173   1.733   0.989   5.650  0.0856  0.0405  0.4711
 4578SOL     OW15174   3.120   1.646   2.115  0.5241 -0.0472  0.1558
 4578SOL    HW115175   3.130   1.551   2.107  0.1811 -0.0894  0.2020
 4578SOL    HW215176   3.136   1.679   2.026 -0.6730 -0.2743 -0.1609
 4579SOL     OW15177   6.086   3.367   0.908  0.4363 -0.4725  0.2952
 4579SOL    HW115178   6.005   3.316   0.911  1.9464 -3.0734  1.0109
 4579SOL    HW215179   6.097   3.399   0.998  1.0638 -1.7601  0.7190
 4580SOL     OW15180   2.791   1.508   6.096 -0.3043  0.3219 -0.3915
 4580SOL    HW115181   2.727   1.473   6.158  1.1895 -2.4095 -0.2243
 4580SOL    HW215182   2.854   1.556   6.151  2.1015 -3.6880  0.7622
 4581SOL     OW15183   6.708   3.172   4.351  0.0983  0.0044  0.0514
 4581SOL    HW115184   6.626   3.126   4.367  0.7482 -0.9528  0.8044
 4581SOL    HW215185   6.697   3.212   4.265 -0.8092 -0.8754 -0.2597
 4582SOL     OW15186   4.014   7.420   9.577 -0.4238 -0.2020 -0.0284
 4582SOL    HW115187   3.966   7.340   9.555 -1.2764 -0.2841  1.9100
 4582SOL    HW215188   4.088   7.389   9.629 -0.6755  0.2361  0.6049
 4583SOL     OW15189   0.635   1.623   2.109  0.4342  0.6603  0.5310
 4583SOL    HW115190   0.618   1.658   2.022  1.6385  2.9221  1.1452
 4583SOL    HW215191   0.630   1.698   2.167  2.9887 -0.1639  1.9724
 4584SOL     OW15192   2.727   2.428   3.301 -0.3721  0.5885  0.5356
 4584SOL    HW115193   2.720   2.353   3.360  0.3401  0.7295  0.8064
 4584SOL    HW215194   2.644   2.475   3.313  0.0638  1.0375  2.0133
 4585SOL     OW15195   7.447   4.694   3.781  0.2653  0.1205 -0.1808
 4585SOL    HW115196   7.446   4.621   3.843 -1.3283  0.8071  0.6597
 4585SOL    HW215197   7.471   4.770   3.834  1.3733  0.3232 -0.9442
 4586SOL     OW15198   1.314   0.500   3.677  0.2525 -0.2939 -0.1277
 4586SOL    HW115199   1.301   0.572   3.615  0.6572 -0.8767 -0.9107
 4586SOL    HW215200   1.331   0.423   3.622 -4.2264 -1.9951  0.4284
 4587SOL     OW15201   0.258   5.559   2.656 -0.0318 -0.0913 -0.0471
 4587SOL    HW115202   0.271   5.610   2.735  0.0834  0.4985 -0.4372
 4587SOL    HW215203   0.234   5.623   2.589 -1.3268 -0.7237 -0.2116
 4588SOL     OW15204   6.646   7.145   4.097 -0.1894  0.4565 -0.1723
 4588SOL    HW115205   6.687   7.094   4.028 -0.3302  0.8837 -0.5758
 4588SOL    HW215206   6.693   7.121   4.177  0.6663  0.7382 -0.5840
 4589SOL     OW15207   7.027   3.273  10.534 -0.0783  0.2507 -0.1843
 4589SOL    HW115208   7.066   3.207  10.478 -1.1759  0.8197 -1.6919
 4589SOL    HW215209   7.050   3.357  10.493  2.7235  1.0292  2.5784
 4590SOL     OW15210   3.232   0.249   9.992  0.0349 -0.0831  0.2969
 4590SOL    HW115211   3.310   0.253   9.936  2.2599 -1.0218  3.1033
 4590SOL    HW215212   3.209   0.157   9.995  2.8487 -0.9076  4.3348
 4591SOL     OW15213   6.943   0.301   1.098  0.5705 -0.8689  0.2756
 4591SOL    HW115214   7.021   0.328   1.148  1.6118 -1.1140 -1.1402
 4591SOL    HW215215   6.908   0.382   1.062 -0.6298 -0.5906  1.9304
 4592SOL     OW15216   6.095   4.632   0.799  0.1488  0.7443  0.1556
 4592SOL    HW115217   6.004   4.648   0.823 -0.1567 -0.2319 -0.2840
 4592SOL    HW215218   6.096   4.633   0.704  0.1771 -1.2080  0.0943
 4593SOL     OW15219   0.716   4.683   9.549  0.7432  0.2636  0.0996
 4593SOL    HW115220   0.801   4.669   9.589  1.6049  0.6403 -1.5154
 4593SOL    HW215221   0.694   4.600   9.507  0.3755  0.2111  0.3879
 4594SOL     OW15222   4.876   5.889   6.349 -0.2282 -0.5475 -0.3465
 4594SOL    HW115223   4.831   5.904   6.266 -1.0518  0.9137  0.3386
 4594SOL    HW215224   4.965   5.921   6.333 -0.7060  0.8585 -0.3280
 4595SOL     OW15225   5.689   0.951   6.367 -0.3429 -0.2796  0.4114
 4595SOL    HW115226   5.640   0.958   6.286  0.4327  1.2914  0.0382
 4595SOL    HW215227   5.630   0.906   6.427 -1.4458 -0.2508 -0.6184
 4596SOL     OW15228   4.351   1.206  10.860  0.4040 -0.4126  0.1581
 4596SOL    HW115229   4.262   1.174  10.850 -0.1022  0.6200  1.2327
 4596SOL    HW215230   4.404   1.127  10.870 -0.4898 -0.9987  0.3374
 4597SOL     OW15231   7.703   6.427   8.988  0.0806 -0.0999  0.5219
 4597SOL    HW115232   7.702   6.521   9.003 -1.4488  0.0907 -0.5136
 4597SOL    HW215233   7.738   6.390   9.070 -0.2004  1.3060  1.3115
 4598SOL     OW15234   3.673   2.440   2.269 -0.0707 -0.0619  0.1124
 4598SOL    HW115235   3.734   2.391   2.214 -0.8346 -1.6332  0.6293
 4598SOL    HW215236   3.679   2.530   2.237  0.0361 -0.7986 -2.0450
 4599SOL     OW15237   3.068   4.485   6.854 -0.2811  0.6916  0.3334
 4599SOL    HW115238   3.032   4.490   6.943 -1.7382  1.5144 -0.2586
 4599SOL    HW215239   3.014   4.546   6.803  0.2934 -0.0168 -1.1833
 4600SOL     OW15240   1.428   5.606   2.037 -0.1491 -0.4069 -0.2401
 4600SOL    HW115241   1.445   5.574   1.948 -1.6182  1.2084 -1.1455
 4600SOL    HW215242   1.504   5.575   2.088  1.1785 -0.6115 -2.2220
 4601SOL     OW15243   7.725   0.181   4.186 -0.3737 -0.2611 -0.0229
 4601SOL    HW115244   7.634   0.190   4.216 -0.2418 -1.4796  0.8548
 4601SOL    HW215245   7.721   0.192   4.092 -1.4084 -0.0962  0.0304
 4602SOL     OW15246   6.191   1.370   0.764  0.2205 -0.0873 -0.0726
 4602SOL    HW115247   6.102   1.388   0.795 -0.3141 -3.5375  0.7961
 4602SOL    HW215248   6.178   1.327   0.679  1.1968  1.0341 -0.8097
 4603SOL     OW15249   3.146   4.781  10.008  0.2381  0.1544 -0.4538
 4603SOL    HW115250   3.227   4.790   9.958  0.8009 -1.0245  0.2209
 4603SOL    HW215251   3.157   4.840  10.082  0.6299 -0.2534 -0.1835
 4604SOL     OW15252   4.420   7.019   5.861 -0.3140  0.4088  0.2179
 4604SOL    HW115253   4.374   7.000   5.779  1.0130  3.8635 -1.5261
 4604SOL    HW215254   4.476   6.943   5.874 -0.8865 -0.4630 -1.8786
 4605SOL     OW15255   6.179   3.358   8.935 -0.3368 -0.2634  0.0298
 4605SOL    HW115256   6.181   3.329   9.026  0.0313 -0.9472 -0.1953
 4605SOL    HW215257   6.190   3.279   8.883 -1.4184 -0.0078 -0.6394
 4606SOL     OW15258   2.251   1.059   3.809 -0.3080 -0.2923 -0.6238
 4606SOL    HW115259   2.223   0.987   3.752 -1.4306 -0.3814  0.0142
 4606SOL    HW215260   2.346   1.062   3.797 -0.4376 -0.6798 -2.0478
 4607SOL     OW15261   6.503   5.867   9.709  0.4108  0.6163  0.0204
 4607SOL    HW115262   6.423   5.907   9.676 -1.8294 -2.6136  1.0440
 4607SOL    HW215263   6.525   5.918   9.787  1.3133  3.4959 -1.9716
 4608SOL     OW15264   7.717   2.775   3.282 -0.3708  0.2142  0.2386
 4608SOL    HW115265   7.647   2.764   3.219 -2.0721  0.3517  2.0099
 4608SOL    HW215266   7.739   2.686   3.310 -0.6202  0.2255  0.4770
 4609SOL     OW15267   2.162   3.463   0.622 -0.6298 -0.5162 -0.1062
 4609SOL    HW115268   2.209   3.475   0.705 -2.3347 -0.7835  0.9388
 4609SOL    HW215269   2.187   3.376   0.593  1.9151  0.4757 -1.2145
 4610SOL     OW15270   0.527   3.882   9.590 -0.1488 -0.3636 -0.2003
 4610SOL    HW115271   0.515   3.825   9.515 -1.1163  0.4622 -0.6887
 4610SOL    HW215272   0.602   3.845   9.636 -0.1109 -1.4106 -1.0657
 4611SOL     OW15273   1.484   4.864   7.015  0.3820 -0.3396 -0.0720
 4611SOL    HW115274   1.430   4.922   7.068  0.0265 -0.9578  0.2390
 4611SOL    HW215275   1.498   4.787   7.069  0.6217 -0.6717 -0.5996
 4612SOL     OW15276   0.102   6.311  10.568 -0.0720 -0.1500  0.2219
 4612SOL    HW115277   0.169   6.332  10.504  0.9529 -2.7764  0.3147
 4612SOL    HW215278   0.146   6.320  10.653  0.1890 -1.7084  0.2898
 4613SOL     OW15279   0.178   6.574   4.139 -0.2755 -0.1242  0.2036
 4613SOL    HW115280   0.226   6.491   4.145 -0.3679 -0.5835 -3.3784
 4613SOL    HW215281   0.087   6.551   4.158 -0.0184 -0.4434  1.0892
 4614SOL     OW15282   3.442   6.202   7.958  0.6461 -0.4190 -0.5782
 4614SOL    HW115283   3.481   6.128   7.911 -1.7528 -0.3148 -3.0391
 4614SOL    HW215284   3.398   6.162   8.033  1.6937 -1.0734 -0.2878
 4615SOL     OW15285   3.834   3.840   5.453  0.0972  0.5350  0.0198
 4615SOL    HW115286   3.857   3.855   5.545  2.5468 -1.0431 -0.2398
 4615SOL    HW215287   3.869   3.753   5.434  0.0217  0.9920 -2.5193
 4616SOL     OW15288   1.408   2.332   1.922 -0.1102 -0.4515 -0.2662
 4616SOL    HW115289   1.466   2.350   1.847 -0.0195 -1.1120 -0.3601
 4616SOL    HW215290   1.342   2.402   1.918  1.6141  1.3508  0.8374
 4617SOL     OW15291   0.017   2.866   3.172 -0.1770  0.1362  0.2395
 4617SOL    HW115292  -0.076   2.888   3.171 -0.0787  0.6569 -1.7612
 4617SOL    HW215293   0.021   2.776   3.140 -0.0695 -0.4311  1.7708
 4618SOL     OW15294   7.810   2.414   0.335 -0.0691 -0.2442  0.5985
 4618SOL    HW115295   7.888   2.373   0.297  0.8971  2.0232 -0.0465
 4618SOL    HW215296   7.751   2.426   0.261 -0.5097 -0.7734  0.8550
 4619SOL     OW15297   0.561   1.161   5.645 -0.1584  0.2048  0.1102
 4619SOL    HW115298   0.486   1.111   5.614  0.3163 -1.8842  2.0422
 4619SOL    HW215299   0.524   1.246   5.672 -1.8955 -0.8004  1.0977
 4620SOL     OW15300   0.703   1.361   2.074  0.4466  0.0923 -0.0218
 4620SOL    HW115301   0.664   1.448   2.079 -3.8235 -1.5446  0.0739
 4620SOL    HW215302   0.736   1.344   2.162 -0.7905  0.8256  0.6155
 4621SOL     OW15303   6.099   5.237   5.060  0.1171  0.4876 -0.3207
 4621SOL    HW115304   6.096   5.317   5.111  0.2556 -0.4988  1.3061
 4621SOL    HW215305   6.147   5.175   5.115  1.2491 -0.3329 -2.1143
 4622SOL     OW15306   2.470   3.724   9.620 -0.2730 -0.1452 -0.6669
 4622SOL    HW115307   2.480   3.819   9.631  0.1905 -0.2273 -0.3325
 4622SOL    HW215308   2.426   3.696   9.701  1.0771 -0.4352  0.0040
 4623SOL     OW15309   4.573   1.276  10.698 -0.1514 -0.4357  0.1054
 4623SOL    HW115310   4.642   1.215  10.726 -0.1164 -0.5477 -0.2227
 4623SOL    HW215311   4.492   1.237  10.731 -0.0241 -0.1032  0.8329
 4624SOL     OW15312   6.795   5.544   0.281 -0.2170  0.2060  0.3538
 4624SOL    HW115313   6.749   5.536   0.197  0.6612  1.1907 -0.2436
 4624SOL    HW215314   6.725   5.541   0.346 -1.0105  0.3980 -0.4611
 4625SOL     OW15315   6.130   3.502   3.779 -0.2769  0.7324  0.4420
 4625SOL    HW115316   6.224   3.490   3.765 -0.2376  1.2772  0.2088
 4625SOL    HW215317   6.089   3.457   3.705 -0.2266 -0.0255  0.8667
 4626SOL     OW15318   3.257   2.595   7.341  0.2316  0.2796  0.1883
 4626SOL    HW115319   3.232   2.507   7.371 -2.8811 -0.0551 -2.7801
 4626SOL    HW215320   3.227   2.653   7.410 -0.6248 -0.7918  0.7521
 4627SOL     OW15321   6.132   5.303   8.972 -0.5826  0.1660  0.1337
 4627SOL    HW115322   6.115   5.247   8.896 -1.0910  0.6735 -0.1328
 4627SOL    HW215323   6.163   5.385   8.935 -1.2497  0.5690  0.4470
 4628SOL     OW15324   4.090   0.267   9.980  0.0084 -0.1403 -0.1557
 4628SOL    HW115325   4.042   0.348   9.963  0.7586  0.6992  1.4890
 4628SOL    HW215326   4.180   0.295   9.996  0.4475 -1.3911 -0.3150
 4629SOL     OW15327   1.631   6.437   9.478  0.1327  0.1485 -0.1991
 4629SOL    HW115328   1.715   6.433   9.525  0.4549  0.3057 -0.7554
 4629SOL    HW215329   1.643   6.505   9.412 -0.7438  0.8117  0.2988
 4630SOL     OW15330   3.287   1.540   7.133  0.1711  0.0318  0.3086
 4630SOL    HW115331   3.296   1.489   7.053  0.4246 -0.3779  0.5992
 4630SOL    HW215332   3.286   1.476   7.204  1.0011  0.4418  0.7181
 4631SOL     OW15333   3.731   5.339   0.714  0.3735  0.0287  0.2374
 4631SOL    HW115334   3.768   5.421   0.682 -0.3986  0.6738  0.9299
 4631SOL    HW215335   3.780   5.320   0.794 -0.7309  0.8917  1.1638
 4632SOL     OW15336   2.780   0.890   7.932  0.4756 -0.5169 -0.3117
 4632SOL    HW115337   2.876   0.891   7.929  0.4901 -0.7668  0.0846
 4632SOL    HW215338   2.755   0.805   7.896  0.4914 -1.4608  1.7623
 4633SOL     OW15339   1.301   1.323   2.067  0.0490 -0.2682  0.0168
 4633SOL    HW115340   1.395   1.336   2.057  0.9371 -2.5148  3.4957
 4633SOL    HW215341   1.281   1.245   2.016  0.0343  0.1928 -0.6979
 4634SOL     OW15342   3.207   3.992   6.106  0.5289 -0.1815  0.4781
 4634SOL    HW115343   3.233   3.918   6.160  0.1948  0.3076  1.3171
 4634SOL    HW215344   3.113   4.002   6.123  0.4252 -0.0025 -0.1723
 4635SOL     OW15345   0.797   1.202  10.322 -0.1032 -0.0175 -0.1495
 4635SOL    HW115346   0.734   1.233  10.257  0.9044 -0.1008 -1.1993
 4635SOL    HW215347   0.760   1.120  10.354 -1.0204  0.4436  0.0109
 4636SOL     OW15348   3.867   7.845   0.778  0.2096 -0.3112 -0.2615
 4636SOL    HW115349   3.857   7.854   0.872  1.3090  0.6561 -0.2287
 4636SOL    HW215350   3.897   7.930   0.748 -1.2116 -0.2457 -1.6604
 4637SOL     OW15351   5.482   2.645   7.239 -0.5186 -0.4742  0.6549
 4637SOL    HW115352   5.506   2.589   7.313 -1.7908 -2.2374 -0.1903
 4637SOL    HW215353   5.542   2.619   7.169  2.4373  2.9766  1.6467
 4638SOL     OW15354   0.575   4.342   4.688 -0.3977  0.1792  0.3753
 4638SOL    HW115355   0.556   4.346   4.595  2.0612  1.0243 -0.1821
 4638SOL    HW215356   0.586   4.249   4.708  1.8807  0.1092 -0.9022
 4639SOL     OW15357   3.368   6.917   5.875 -0.3578  0.1342  0.4426
 4639SOL    HW115358   3.441   6.856   5.865 -0.4766 -0.0761  0.8198
 4639SOL    HW215359   3.342   6.938   5.786 -0.2690 -0.3147  0.3067
 4640SOL     OW15360   4.550   3.822   2.129  0.5124  0.2916  0.2985
 4640SOL    HW115361   4.617   3.847   2.065  1.1366 -1.6144  0.1502
 4640SOL    HW215362   4.549   3.727   2.127 -1.8850  0.2402  0.6559
 4641SOL     OW15363   5.606   7.653   8.598 -0.6592 -0.0868  0.1002
 4641SOL    HW115364   5.614   7.724   8.535  0.7394  0.8637  1.2663
 4641SOL    HW215365   5.585   7.697   8.681  0.1058 -1.0262  0.8178
 4642SOL     OW15366   2.179   1.664  11.433  0.3766 -0.3111  0.2627
 4642SOL    HW115367   2.233   1.743  11.431 -1.3746  0.9561  0.5899
 4642SOL    HW215368   2.194   1.622  11.348  0.9755  0.6137 -0.1063
 4643SOL     OW15369   0.679   4.192   6.914 -0.3888 -0.3224  0.1522
 4643SOL    HW115370   0.676   4.097   6.911  3.2590 -0.5534 -0.8334
 4643SOL    HW215371   0.747   4.212   6.978 -0.2387  1.5818 -0.5378
 4644SOL     OW15372   6.150   3.695   9.828 -0.1093  0.0843  0.1358
 4644SOL    HW115373   6.179   3.725   9.915 -0.7365 -0.9027  0.6960
 4644SOL    HW215374   6.157   3.774   9.773 -0.0470  0.8175  1.1563
 4645SOL     OW15375   1.946   0.860   9.834  0.0660  0.2495  0.6985
 4645SOL    HW115376   1.907   0.860   9.922  1.1308  0.4434  1.1821
 4645SOL    HW215377   1.968   0.769   9.817  0.1833  0.2627  0.7793
 4646SOL     OW15378   6.263   3.469   4.551  0.0384  0.0901 -0.2370
 4646SOL    HW115379   6.237   3.382   4.520  1.2105  0.0055 -0.9946
 4646SOL    HW215380   6.202   3.529   4.508  1.2636 -0.0753 -2.2865
 4647SOL     OW15381   1.358   3.826   1.629  0.3304 -0.3850  0.2744
 4647SOL    HW115382   1.374   3.746   1.579 -0.2565 -1.1089  1.2214
 4647SOL    HW215383   1.387   3.897   1.571  1.9874 -1.3364 -0.1112
 4648SOL     OW15384   4.702   0.754   1.831 -0.0890 -0.4388  0.2963
 4648SOL    HW115385   4.652   0.682   1.869 -2.4043  0.4029 -0.9177
 4648SOL    HW215386   4.705   0.820   1.900 -0.8988 -0.4286  0.3359
 4649SOL     OW15387   4.034   0.979   2.038 -0.0070  0.1783  0.0836
 4649SOL    HW115388   4.081   1.022   2.109 -0.3236  0.5152  0.0955
 4649SOL    HW215389   3.981   0.912   2.080 -1.5982  1.5589  0.4169
 4650SOL     OW15390   6.343   6.069   9.523 -0.5485 -0.0914  0.5263
 4650SOL    HW115391   6.412   6.048   9.460 -1.2344 -0.1177 -0.2365
 4650SOL    HW215392   6.340   6.164   9.525 -0.9024 -0.0847  0.0711
 4651SOL     OW15393   2.341   3.814  10.558 -0.0842 -0.3464  0.2754
 4651SOL    HW115394   2.386   3.850  10.635 -0.6729 -0.9283  0.9061
 4651SOL    HW215395   2.384   3.855  10.483  0.0947  0.6944  0.9392
 4652SOL     OW15396   4.575   7.038   7.156 -0.3314  0.0447 -0.4134
 4652SOL    HW115397   4.667   7.061   7.140 -0.6904  2.0577  0.2009
 4652SOL    HW215398   4.531   7.061   7.074 -0.2909 -1.0568 -0.7597
 4653SOL     OW15399   3.384   1.392   7.617  0.0746  0.4387  0.1275
 4653SOL    HW115400   3.419   1.470   7.573 -0.9052 -0.1187 -1.7739
 4653SOL    HW215401   3.444   1.377   7.690  2.4233  0.8718 -1.5773
 4654SOL     OW15402   7.782   2.388   6.202  0.3812 -0.4798 -0.1165
 4654SOL    HW115403   7.695   2.403   6.165  1.7039 -0.2329 -3.5211
 4654SOL    HW215404   7.785   2.446   6.278 -3.0444 -2.0240  1.4363
 4655SOL     OW15405   5.566   6.650   8.375 -0.1281  0.5950 -0.4424
 4655SOL    HW115406   5.477   6.620   8.395 -0.4790  1.2329 -1.0213
 4655SOL    HW215407   5.580   6.725   8.433  1.2596 -1.3846  2.0124
 4656SOL     OW15408   6.488   2.949   8.353 -0.0909 -0.4033  0.2130
 4656SOL    HW115409   6.537   2.906   8.283 -1.7560 -1.8457 -0.1466
 4656SOL    HW215410   6.547   3.015   8.388  1.1978 -0.4651 -1.7627
 4657SOL     OW15411   3.620   0.491  10.712  0.4616 -0.0334  0.5839
 4657SOL    HW115412   3.637   0.480  10.618 -2.6578 -0.0034 -0.0900
 4657SOL    HW215413   3.624   0.585  10.726  1.1463 -0.0524  0.5375
 4658SOL     OW15414   0.478   4.200   6.244  0.1240 -0.1099 -0.8097
 4658SOL    HW115415   0.469   4.108   6.221  1.8969 -0.4219 -0.3631
 4658SOL    HW215416   0.496   4.243   6.160 -2.5557  0.1897 -1.3424
 4659SOL     OW15417   7.678   4.207   3.846 -0.5005 -0.3973 -0.4022
 4659SOL    HW115418   7.725   4.145   3.902  0.6809  0.4591 -0.4186
 4659SOL    HW215419   7.680   4.289   3.894 -2.4657 -0.4253 -0.1619
 4660SOL     OW15420   7.622   0.570   8.803 -0.1498 -0.5280  0.6907
 4660SOL    HW115421   7.716   0.559   8.791 -0.2482 -1.0443  0.4039
 4660SOL    HW215422   7.609   0.559   8.897  0.1561  0.1849  0.8287
 4661SOL     OW15423   2.748   0.234   4.142  0.6757 -0.1300 -0.6977
 4661SOL    HW115424   2.712   0.207   4.226 -0.0715  1.0284 -0.6251
 4661SOL    HW215425   2.811   0.165   4.119  0.3711 -0.8114  0.4608
 4662SOL     OW15426   3.445   5.208   6.782  0.4737 -0.0322 -0.1044
 4662SOL    HW115427   3.420   5.145   6.849 -1.2252  0.7152  0.0036
 4662SOL    HW215428   3.469   5.287   6.830  0.2856  0.1687 -0.3391
 4663SOL     OW15429   1.690   4.650   9.662 -0.1801  0.1690 -0.0195
 4663SOL    HW115430   1.784   4.658   9.644 -0.1452  0.7167  0.3839
 4663SOL    HW215431   1.683   4.662   9.756 -0.5910 -0.5246  0.0452
 4664SOL     OW15432   1.869   2.756   5.795 -0.1106  0.3661 -0.6671
 4664SOL    HW115433   1.841   2.668   5.819  0.6843  0.1715 -0.4109
 4664SOL    HW215434   1.880   2.753   5.700  0.9190 -0.1255 -0.5475
 4665SOL     OW15435   1.152   0.757  11.022 -0.0443  0.3745  0.1315
 4665SOL    HW115436   1.075   0.720  10.978  0.5504 -2.2668  1.1370
 4665SOL    HW215437   1.130   0.753  11.115  0.7498  0.9669  0.3506
 4666SOL     OW15438   2.024   6.511   7.910  0.2784  0.4128  0.1184
 4666SOL    HW115439   2.100   6.454   7.918  0.8848  1.2205  0.1866
 4666SOL    HW215440   1.961   6.476   7.973  0.6242 -0.1904  0.1389
 4667SOL     OW15441   4.913   0.962  11.233 -0.0713  0.5064 -0.1652
 4667SOL    HW115442   4.917   1.004  11.319 -0.2781 -0.2611  0.2266
 4667SOL    HW215443   4.841   0.899  11.240  1.5816 -1.4517 -0.0307
 4668SOL     OW15444   1.127   6.965   7.896  0.2537 -0.3131 -0.0740
 4668SOL    HW115445   1.135   6.932   7.986 -2.1219 -1.5673 -0.2440
 4668SOL    HW215446   1.178   6.903   7.843  0.1774 -0.6299  0.2172
 4669SOL     OW15447   7.037   4.706   8.457  0.0138 -0.0083 -0.3529
 4669SOL    HW115448   7.088   4.757   8.520  0.9659 -0.9312 -0.3504
 4669SOL    HW215449   7.094   4.700   8.380  0.0270 -1.2846 -0.2542
 4670SOL     OW15450   5.091   6.663  11.360  0.0683 -0.4848 -0.1002
 4670SOL    HW115451   5.100   6.758  11.370  1.6216 -0.6789  0.6685
 4670SOL    HW215452   5.012   6.641  11.410  0.8517  0.1731  1.4927
 4671SOL     OW15453   7.035   5.794   9.199  0.6815  0.3699 -0.4576
 4671SOL    HW115454   7.048   5.850   9.123  0.4353 -0.4370 -1.1182
 4671SOL    HW215455   6.940   5.779   9.202  0.8277 -0.7656 -0.8712
 4672SOL     OW15456   2.778   5.592   8.772 -0.2771  0.1988 -0.0334
 4672SOL    HW115457   2.829   5.673   8.780 -0.8898  0.6217 -0.2897
 4672SOL    HW215458   2.709   5.600   8.838  0.5574 -0.8225  0.9955
 4673SOL     OW15459   2.797   5.128   9.374 -0.4972  0.6446  0.0374
 4673SOL    HW115460   2.802   5.051   9.318  1.0221  1.0213 -0.3654
 4673SOL    HW215461   2.826   5.200   9.319 -0.1385  1.2148  0.9578
 4674SOL     OW15462   3.864   5.772   8.410 -0.8103 -0.2458  0.4763
 4674SOL    HW115463   3.795   5.835   8.429 -0.4455 -0.0292  1.1309
 4674SOL    HW215464   3.826   5.714   8.344 -1.6140 -0.1323  0.8254
 4675SOL     OW15465   1.547   7.186   0.347  0.1309 -0.0276 -0.2336
 4675SOL    HW115466   1.512   7.152   0.429 -2.3781  0.3384 -1.0854
 4675SOL    HW215467   1.490   7.260   0.324  2.3957  1.6176 -0.9808
 4676SOL     OW15468   3.648   3.274   7.869 -0.2906 -0.0611  0.1188
 4676SOL    HW115469   3.706   3.337   7.912 -0.0531 -2.2606  3.3206
 4676SOL    HW215470   3.701   3.237   7.799 -0.3167  2.8405 -1.6269
 4677SOL     OW15471   7.378   7.332   7.445 -0.0074 -0.0399 -0.1537
 4677SOL    HW115472   7.319   7.261   7.468  0.1909 -0.4947 -1.0046
 4677SOL    HW215473   7.412   7.309   7.358  1.2233  0.3296  0.1982
 4678SOL     OW15474   0.838   6.834   4.473 -0.3318  0.6504  0.4698
 4678SOL    HW115475   0.861   6.913   4.523  0.1439  0.3427  0.7542
 4678SOL    HW215476   0.913   6.776   4.486 -0.8881 -0.0358  0.6537
 4679SOL     OW15477   6.872   5.618   3.309  0.0887  0.3647 -0.6142
 4679SOL    HW115478   6.960   5.592   3.283 -0.0375  0.5201 -1.2008
 4679SOL    HW215479   6.876   5.623   3.405 -0.4404 -3.9209 -0.1643
 4680SOL     OW15480   7.268   3.451   5.256 -0.2640  0.5749  0.2592
 4680SOL    HW115481   7.204   3.502   5.207  1.3424 -1.0138 -3.9397
 4680SOL    HW215482   7.352   3.492   5.237  0.5867 -1.0183  0.3787
 4681SOL     OW15483   7.232   3.997   2.662  0.1879  0.5098  0.0419
 4681SOL    HW115484   7.305   4.026   2.717  0.7540 -1.3153  0.3268
 4681SOL    HW215485   7.267   3.999   2.573 -0.3673  2.3628 -0.1814
 4682SOL     OW15486   3.492   6.735   1.589 -0.2181 -0.0579 -0.1023
 4682SOL    HW115487   3.459   6.663   1.535  0.0519 -0.2052 -0.0699
 4682SOL    HW215488   3.523   6.692   1.669  2.4040 -0.2460 -1.1212
 4683SOL     OW15489   3.569   5.448   0.292 -0.1262  0.4656 -0.4032
 4683SOL    HW115490   3.553   5.531   0.248  0.8764  0.6992 -0.3470
 4683SOL    HW215491   3.655   5.458   0.332 -0.7771  0.0702  1.1700
 4684SOL     OW15492   5.505   5.010   5.239  0.6686  0.1190  0.3266
 4684SOL    HW115493   5.533   4.942   5.300 -0.2838 -0.8850 -0.3279
 4684SOL    HW215494   5.512   5.092   5.289 -0.9177 -0.7485  2.0749
 4685SOL     OW15495   1.127   3.644   8.640 -0.1683  0.3700 -0.0368
 4685SOL    HW115496   1.150   3.578   8.706 -0.7351  0.5594  0.3559
 4685SOL    HW215497   1.140   3.727   8.684  0.8074  0.5436 -0.6185
 4686SOL     OW15498   7.546   5.980   8.800 -0.1099 -0.1804  0.2478
 4686SOL    HW115499   7.526   6.064   8.844 -0.0497 -1.0894  2.1273
 4686SOL    HW215500   7.579   5.924   8.870  1.3539 -1.3145 -1.2673
 4687SOL     OW15501   4.114   5.311   0.904  0.7767 -0.3909  0.1424
 4687SOL    HW115502   4.109   5.216   0.914  1.9451 -0.6658 -1.3536
 4687SOL    HW215503   4.034   5.344   0.944 -0.2684 -2.1107 -0.3995
 4688SOL     OW15504   7.327   4.422   6.080 -0.1044 -0.1172 -0.2723
 4688SOL    HW115505   7.349   4.470   6.159  2.0002 -0.7372 -0.4277
 4688SOL    HW215506   7.381   4.462   6.012 -1.1865 -0.2046 -1.2015
 4689SOL     OW15507   0.409   5.070   0.942  0.1169 -0.5655  0.0766
 4689SOL    HW115508   0.352   4.998   0.918 -0.4773 -0.8526  2.1734
 4689SOL    HW215509   0.387   5.090   1.033  0.6853  1.8682 -0.2376
 4690SOL     OW15510   0.051   0.390   9.624  0.6218 -0.3506  0.1127
 4690SOL    HW115511   0.013   0.430   9.546 -2.7507  0.9604  2.1990
 4690SOL    HW215512   0.027   0.298   9.618 -1.5077  0.1059  0.4283
 4691SOL     OW15513   6.586   2.641   1.090 -1.2795  0.7875 -0.1397
 4691SOL    HW115514   6.548   2.683   1.168 -0.8297  0.2295  0.3856
 4691SOL    HW215515   6.615   2.714   1.036 -0.6890  1.1661  0.6693
 4692SOL     OW15516   3.525   1.964   6.970  0.4811  1.1674 -0.1217
 4692SOL    HW115517   3.464   1.918   7.027  2.1014 -0.4499  0.4199
 4692SOL    HW215518   3.503   1.934   6.882  0.5763  0.4621  0.0864
 4693SOL     OW15519   1.399   5.819   0.802  0.3597 -0.6496  0.3474
 4693SOL    HW115520   1.485   5.857   0.784  1.9482 -3.3256  1.7047
 4693SOL    HW215521   1.373   5.859   0.885  1.7688 -2.0279  1.5008
 4694SOL     OW15522   4.557   7.238  10.656 -0.1778 -0.1066  0.1827
 4694SOL    HW115523   4.579   7.192  10.737 -1.4636 -0.0253  0.6048
 4694SOL    HW215524   4.464   7.222  10.644 -0.3286  1.1253 -0.4853
 4695SOL     OW15525   0.226   0.799   5.679  0.0828  0.0484 -0.0598
 4695SOL    HW115526   0.258   0.812   5.768 -0.4333  1.5591 -0.0642
 4695SOL    HW215527   0.185   0.712   5.681 -1.6300  0.8171  1.7439
 4696SOL     OW15528   3.051   1.430   9.254  0.7323 -0.3299 -0.3384
 4696SOL    HW115529   3.083   1.509   9.298 -1.0338 -0.7031  1.7433
 4696SOL    HW215530   2.995   1.463   9.183  0.2272  0.3021  0.3426
 4697SOL     OW15531   6.685   1.873   9.438 -0.1186 -0.4489 -0.7701
 4697SOL    HW115532   6.678   1.794   9.492 -0.6481  0.4312  0.5039
 4697SOL    HW215533   6.595   1.899   9.420  0.0503 -0.4039 -1.6130
 4698SOL     OW15534   0.319   4.482   4.363 -0.3548 -0.0296  0.5511
 4698SOL    HW115535   0.381   4.412   4.382  2.0358  0.6522 -3.5461
 4698SOL    HW215536   0.236   4.436   4.347  0.6020 -1.6875  0.1299
 4699SOL     OW15537   1.659   0.908  11.390 -0.4918  0.0719  0.0516
 4699SOL    HW115538   1.638   0.820  11.419 -0.1633  0.3568  1.2052
 4699SOL    HW215539   1.624   0.913  11.301  1.2017 -1.8693 -0.8172
 4700SOL     OW15540   2.320   3.631   4.768  0.1349 -0.0693 -0.0853
 4700SOL    HW115541   2.255   3.651   4.701 -0.1469  1.9107  0.6910
 4700SOL    HW215542   2.328   3.713   4.818  2.3024 -0.6381  0.6126
 4701SOL     OW15543   5.466   4.290  10.174  0.1366  0.1834  0.4827
 4701SOL    HW115544   5.476   4.243  10.257 -0.0412  2.0280  1.6089
 4701SOL    HW215545   5.372   4.306  10.168 -0.0054 -0.9796 -0.7113
 4702SOL     OW15546   0.035   7.748   6.052  0.4061 -0.4180  0.2727
 4702SOL    HW115547   0.034   7.749   5.956 -0.0509  0.3558  0.2730
 4702SOL    HW215548  -0.047   7.792   6.077  0.0635 -1.4375  1.0228
 4703SOL     OW15549   2.287   4.400  10.438  0.2012  1.0135  0.5368
 4703SOL    HW115550   2.218   4.398  10.504  0.7290 -0.5240  1.0716
 4703SOL    HW215551   2.253   4.349  10.365  0.4185  1.0227  0.4264
 4704SOL     OW15552   7.349   4.712  10.045 -0.4070  0.2886  0.3415
 4704SOL    HW115553   7.358   4.805  10.022  0.0426 -0.0039 -0.7394
 4704SOL    HW215554   7.340   4.667   9.961 -3.3331 -0.4192  0.9401
 4705SOL     OW15555   0.524   1.296   7.678 -0.4928  0.2291  0.0595
 4705SOL    HW115556   0.532   1.283   7.772  3.3807  2.0957  0.1965
 4705SOL    HW215557   0.465   1.371   7.669 -1.7774 -0.6511  0.8551
 4706SOL     OW15558   4.867   4.316   7.140  0.1032  0.0336  0.2136
 4706SOL    HW115559   4.921   4.394   7.150 -1.0423  0.9066 -0.1273
 4706SOL    HW215560   4.794   4.331   7.200 -1.4750  0.4737 -1.7045
 4707SOL     OW15561   5.936   2.235   7.333  0.1849  0.4903  0.1596
 4707SOL    HW115562   5.940   2.261   7.425 -1.7265  0.7746  0.1875
 4707SOL    HW215563   5.984   2.304   7.287  1.9162 -0.0992  0.9784
 4708SOL     OW15564   2.040   7.607  12.004 -0.3968  0.0056  0.1259
 4708SOL    HW115565   1.989   7.656  12.069 -0.9126 -0.4117  0.0396
 4708SOL    HW215566   2.041   7.665  11.927 -0.5787  0.1030  0.1948
 4709SOL     OW15567   5.843   2.208   2.994  0.4607  0.0010 -0.1733
 4709SOL    HW115568   5.819   2.140   3.057 -0.2745 -0.3675 -0.8281
 4709SOL    HW215569   5.810   2.289   3.032 -0.6594 -0.3209 -0.4267
 4710SOL     OW15570   2.840   5.313   9.168 -0.0570 -0.2239  0.3968
 4710SOL    HW115571   2.903   5.342   9.234  0.2039 -0.5299  0.2846
 4710SOL    HW215572   2.861   5.365   9.090 -1.0179  0.8794  0.8336
 4711SOL     OW15573   1.808   7.646   3.946  0.4133 -1.0430  0.4398
 4711SOL    HW115574   1.882   7.676   3.894 -1.7361 -0.1214 -2.3952
 4711SOL    HW215575   1.793   7.716   4.009 -0.2423  0.6770 -1.4858
 4712SOL     OW15576   0.290   2.536   7.649 -0.0208 -0.1936  0.5549
 4712SOL    HW115577   0.319   2.603   7.711  0.6220 -0.8220  0.9548
 4712SOL    HW215578   0.233   2.583   7.588  0.8165  0.8297  0.5185
 4713SOL     OW15579   6.311   3.600   7.216  0.1167 -0.1100 -0.1602
 4713SOL    HW115580   6.327   3.540   7.290 -0.2539  0.2545  0.2178
 4713SOL    HW215581   6.245   3.555   7.163 -1.1305  0.5175  0.8013
 4714SOL     OW15582   0.209   2.416   2.718  0.6796 -0.1795  0.0266
 4714SOL    HW115583   0.269   2.488   2.701 -0.5273  0.8575  0.0572
 4714SOL    HW215584   0.247   2.370   2.793  2.1487 -0.3847 -0.8142
 4715SOL     OW15585   5.639   0.303  12.311 -0.1608 -0.2054  0.0833
 4715SOL    HW115586   5.576   0.251  12.263 -1.9744  0.9874  1.0732
 4715SOL    HW215587   5.613   0.293  12.403  1.7652 -0.5333  0.6511
 4716SOL     OW15588   7.300   0.657   7.998  0.1235 -0.2111 -0.3723
 4716SOL    HW115589   7.289   0.719   8.069  0.3021  0.2512 -0.7383
 4716SOL    HW215590   7.381   0.685   7.954  0.3839 -0.8992 -0.3442
 4717SOL     OW15591   7.284   2.521   9.018  0.5271 -0.4547 -0.1294
 4717SOL    HW115592   7.253   2.592   8.962  0.1914 -0.5499 -0.0646
 4717SOL    HW215593   7.378   2.513   8.998  0.4488 -0.3568 -0.5321
 4718SOL     OW15594   7.284   1.241   7.298  0.0172 -0.0102  0.2128
 4718SOL    HW115595   7.330   1.194   7.229 -1.0839 -0.3384 -0.3230
 4718SOL    HW215596   7.328   1.216   7.379  1.0685  0.0691 -0.3227
 4719SOL     OW15597   3.925   0.998   2.686 -0.1122  0.1402  0.6410
 4719SOL    HW115598   3.830   1.009   2.681 -0.6818 -3.7331 -1.2395
 4719SOL    HW215599   3.958   1.032   2.603 -0.1130  0.0249  0.5919
 4720SOL     OW15600   6.699   0.789   7.370  0.3957 -0.4916 -0.6690
 4720SOL    HW115601   6.620   0.785   7.316  0.3133 -1.6903 -0.4880
 4720SOL    HW215602   6.697   0.877   7.408 -1.0290 -0.6043 -0.4092
 4721SOL     OW15603   0.421   4.389   2.205 -0.2963 -0.0550  0.5642
 4721SOL    HW115604   0.423   4.485   2.207  0.9019 -0.0461  0.0121
 4721SOL    HW215605   0.373   4.364   2.284 -1.2286  1.0075  0.3488
 4722SOL     OW15606   3.311   5.564   3.365 -0.0240 -0.1429  1.1017
 4722SOL    HW115607   3.234   5.619   3.374 -0.6796 -1.0682  1.3572
 4722SOL    HW215608   3.307   5.504   3.440  0.7521 -0.4289  0.9322
 4723SOL     OW15609   6.105   2.434   6.589 -0.8278 -0.1003 -0.2117
 4723SOL    HW115610   6.106   2.527   6.611  0.0948 -0.3683  0.9705
 4723SOL    HW215611   6.020   2.420   6.545 -0.4568  1.5270 -1.5581
 4724SOL     OW15612   1.124   1.727   1.210  0.3496 -0.1015 -0.4915
 4724SOL    HW115613   1.182   1.780   1.265  0.5980 -0.3696 -0.4953
 4724SOL    HW215614   1.117   1.643   1.257 -1.8069  0.6534  0.6933
 4725SOL     OW15615   4.115   0.970  10.146  0.4616  0.5180  0.2497
 4725SOL    HW115616   4.051   0.913  10.188  0.3993  1.1495  1.0445
 4725SOL    HW215617   4.153   0.917  10.077 -2.7587  0.9095 -2.0240
 4726SOL     OW15618   5.296   3.332  11.258 -0.1080 -0.5462  0.3975
 4726SOL    HW115619   5.347   3.263  11.216 -1.7821 -1.1296 -0.7652
 4726SOL    HW215620   5.332   3.414  11.223  1.6886 -0.7613  1.5598
 4727SOL     OW15621   5.147   5.238   3.775  0.5845 -0.4360  0.2311
 4727SOL    HW115622   5.086   5.198   3.712  0.4675 -1.2739  0.8628
 4727SOL    HW215623   5.146   5.179   3.850  2.1582 -0.4444  0.2650
 4728SOL     OW15624   6.029   4.028   8.075  0.0901 -0.4546  1.1840
 4728SOL    HW115625   5.954   4.081   8.100  0.8007  1.3580 -0.2623
 4728SOL    HW215626   6.095   4.046   8.142 -0.3814 -1.2117  1.8642
 4729SOL     OW15627   2.609   0.039  12.074  0.2701  0.0519  0.1291
 4729SOL    HW115628   2.699   0.014  12.095  0.2458  0.9675  1.4421
 4729SOL    HW215629   2.564  -0.044  12.057  0.9075 -0.5660  1.3611
 4730SOL     OW15630   0.417   3.513  10.962 -0.2501 -0.3862  0.2153
 4730SOL    HW115631   0.439   3.552  11.047 -2.4937 -0.1032  0.7119
 4730SOL    HW215632   0.382   3.427  10.983 -1.1942 -0.1617 -0.3729
 4731SOL     OW15633   2.855   6.844   6.122  0.3953  0.3061  0.3841
 4731SOL    HW115634   2.766   6.819   6.146  0.8770 -2.1034 -0.0902
 4731SOL    HW215635   2.901   6.761   6.111  2.0594  1.4237 -1.8415
 4732SOL     OW15636   2.462   4.834   3.107 -0.4096 -0.4909  0.4469
 4732SOL    HW115637   2.484   4.814   3.016  1.9214  0.4920  0.7275
 4732SOL    HW215638   2.497   4.760   3.158  1.7301  0.6892  0.8192
 4733SOL     OW15639   0.820   3.121   5.155 -0.1522 -0.0344 -0.0407
 4733SOL    HW115640   0.725   3.122   5.167 -0.4371 -2.5266 -1.4424
 4733SOL    HW215641   0.835   3.171   5.075 -0.7610 -2.4731 -1.8027
 4734SOL     OW15642   3.250   2.199  12.356  0.0266  0.1500  0.0403
 4734SOL    HW115643   3.166   2.210  12.312 -0.3918 -0.4969  0.6456
 4734SOL    HW215644   3.313   2.244  12.300 -0.5935 -0.0484 -0.8375
 4735SOL     OW15645   6.231   2.169   6.558  0.6450 -0.2182  0.1058
 4735SOL    HW115646   6.188   2.176   6.472  0.9727 -0.7104 -0.1031
 4735SOL    HW215647   6.216   2.254   6.599  4.1165  1.7024 -2.1403
 4736SOL     OW15648   2.837   5.852  10.751  0.1764 -0.1450 -0.2653
 4736SOL    HW115649   2.749   5.877  10.778 -1.2053 -3.4201 -1.1415
 4736SOL    HW215650   2.895   5.912  10.797 -2.5125  3.1241 -0.8124
 4737SOL     OW15651   3.412   4.057   0.254 -0.1960  0.6805 -0.9481
 4737SOL    HW115652   3.396   4.147   0.282  0.7474 -0.2304  3.1628
 4737SOL    HW215653   3.504   4.056   0.228  0.2213  0.6492  0.4610
 4738SOL     OW15654   7.827   0.228   3.178 -0.2292  0.3257 -0.6054
 4738SOL    HW115655   7.884   0.256   3.250 -0.6286 -1.9299  0.7044
 4738SOL    HW215656   7.871   0.258   3.099  1.6146  0.6157  0.4723
 4739SOL     OW15657   2.192   0.917   5.529  0.1072  0.3617 -0.6483
 4739SOL    HW115658   2.286   0.908   5.512  0.0158 -0.6164 -0.6787
 4739SOL    HW215659   2.150   0.869   5.458 -0.3960  0.2291 -0.2659
 4740SOL     OW15660   7.834   0.978  11.827  0.0797 -0.1241 -0.4199
 4740SOL    HW115661   7.805   0.888  11.808  0.3167 -0.4218  0.5602
 4740SOL    HW215662   7.761   1.033  11.799 -0.0747 -0.6208 -1.0192
 4741SOL     OW15663   0.919   0.286   3.190 -0.3468 -0.2045  0.0009
 4741SOL    HW115664   0.978   0.212   3.180  0.2993  0.3197 -0.1941
 4741SOL    HW215665   0.859   0.261   3.261  1.8444  0.2961  2.1688
 4742SOL     OW15666   6.392   2.947   0.780 -0.3506 -0.1472  0.5045
 4742SOL    HW115667   6.297   2.951   0.766 -0.5272 -0.8221  1.4076
 4742SOL    HW215668   6.429   2.944   0.692 -1.1915 -0.4021  0.1462
 4743SOL     OW15669   0.809   7.852  10.705 -0.2836  0.2531 -0.4522
 4743SOL    HW115670   0.903   7.868  10.700 -0.0669 -0.5691  0.5434
 4743SOL    HW215671   0.794   7.824  10.796 -1.7401  1.8675 -0.1331
 4744SOL     OW15672   7.117   6.619   9.788  0.2845 -0.1601 -0.4531
 4744SOL    HW115673   7.082   6.707   9.774 -1.5321 -0.7756  0.0008
 4744SOL    HW215674   7.049   6.561   9.756  0.9718 -1.4255  0.3144
 4745SOL     OW15675   1.184   7.867   2.370  0.5019 -0.1242 -0.4647
 4745SOL    HW115676   1.260   7.811   2.384  0.6724 -0.8305 -3.5155
 4745SOL    HW215677   1.221   7.949   2.338  0.0408 -0.2750 -1.4190
 4746SOL     OW15678   0.020   7.915   5.586  0.0966  0.2247  0.1433
 4746SOL    HW115679   0.086   7.974   5.552  0.4946  0.2923  0.9882
 4746SOL    HW215680  -0.017   7.873   5.509  0.6557  0.6805 -0.3864
 4747SOL     OW15681   6.031   7.093   9.048 -0.8150  0.5530  0.5669
 4747SOL    HW115682   6.022   7.188   9.036 -2.5457  0.3587 -0.0976
 4747SOL    HW215683   6.110   7.082   9.100  0.2028  2.2783 -0.5220
 4748SOL     OW15684   0.512   4.704   1.851  0.4910 -0.0508  0.0736
 4748SOL    HW115685   0.481   4.637   1.790 -1.3302 -0.0164  0.8828
 4748SOL    HW215686   0.432   4.736   1.894  1.4247  1.8540  0.5180
 4749SOL     OW15687   0.773   7.390   6.808 -0.5264  0.7618  0.8393
 4749SOL    HW115688   0.853   7.359   6.765 -0.3725  1.9278  0.2221
 4749SOL    HW215689   0.707   7.392   6.738 -0.6900  1.2098  1.0036
 4750SOL     OW15690   6.934   2.862   2.449  0.2547 -0.5576 -0.0608
 4750SOL    HW115691   6.967   2.785   2.494 -1.6575 -1.3450  0.0829
 4750SOL    HW215692   6.846   2.875   2.485 -0.5689 -0.0270 -2.1142
 4751SOL     OW15693   3.124   0.209   0.019  0.0666  0.1522 -0.3826
 4751SOL    HW115694   3.080   0.171  -0.057  1.3586 -0.2692 -0.9557
 4751SOL    HW215695   3.054   0.229   0.081 -0.7081 -3.3204  0.0258
 4752SOL     OW15696   1.619   2.830   0.864  0.3318  0.0998 -0.0665
 4752SOL    HW115697   1.537   2.823   0.816  1.4124 -2.6445 -1.7776
 4752SOL    HW215698   1.639   2.923   0.867 -2.0294  0.6823 -0.9925
 4753SOL     OW15699   3.137   4.194   4.336 -0.0078 -0.0404 -0.0571
 4753SOL    HW115700   3.056   4.241   4.315 -0.7951 -1.1322  0.4455
 4753SOL    HW215701   3.196   4.215   4.263 -0.6911  0.8663 -0.3707
 4754SOL     OW15702   2.048   3.846   2.839  0.6522 -0.7987  0.2627
 4754SOL    HW115703   2.008   3.817   2.757  0.2338  0.4442  0.0024
 4754SOL    HW215704   2.116   3.907   2.812 -0.5919  0.9427  0.8547
 4755SOL     OW15705   0.635   5.465  12.383  0.5340  0.1417 -0.0717
 4755SOL    HW115706   0.545   5.457  12.415  0.2971 -0.1387 -0.7689
 4755SOL    HW215707   0.673   5.378  12.397  0.3010 -0.1038 -0.8887
 4756SOL     OW15708   6.623   4.495   0.504  0.5983  0.7756  0.2857
 4756SOL    HW115709   6.566   4.427   0.538 -0.1786  1.3568  0.1772
 4756SOL    HW215710   6.706   4.450   0.486  1.1484  0.4908  3.1221
 4757SOL     OW15711   4.523   0.011  10.852 -0.1389  0.1089 -0.9227
 4757SOL    HW115712   4.478  -0.057  10.903  1.7617 -0.7413 -0.3109
 4757SOL    HW215713   4.518   0.089  10.906 -0.7288 -0.0130 -0.7966
 4758SOL     OW15714   5.752   6.332   0.464 -0.8342 -0.9378 -0.1066
 4758SOL    HW115715   5.673   6.308   0.417 -0.8565  0.8984 -1.0672
 4758SOL    HW215716   5.822   6.283   0.420 -1.2378 -1.5642 -0.0693
 4759SOL     OW15717   6.449   2.980  10.784  0.0861 -0.0064  0.0360
 4759SOL    HW115718   6.390   3.042  10.826 -3.3775 -1.0213 -2.8675
 4759SOL    HW215719   6.497   3.032  10.720  0.9750  0.4514  1.0268
 4760SOL     OW15720   6.880   3.267   8.931 -0.4440 -0.0808  0.7460
 4760SOL    HW115721   6.920   3.211   8.864 -1.0012  2.6511 -2.0621
 4760SOL    HW215722   6.953   3.293   8.987  0.4286 -0.8322 -0.0112
 4761SOL     OW15723   4.852   7.565   9.572  0.0078 -0.0890 -0.6189
 4761SOL    HW115724   4.832   7.485   9.619 -1.2911  2.3718  3.4861
 4761SOL    HW215725   4.924   7.605   9.621 -1.5579  2.7490 -0.3793
 4762SOL     OW15726   0.466   5.082   1.847  0.6000  0.6012  0.0966
 4762SOL    HW115727   0.444   5.046   1.932 -0.6071  2.8687  0.8279
 4762SOL    HW215728   0.557   5.056   1.832  0.0241 -2.1221  0.7656
 4763SOL     OW15729   0.157   0.511   7.821 -0.4595 -0.4454 -0.0453
 4763SOL    HW115730   0.129   0.456   7.895  0.2719 -1.5128 -0.5391
 4763SOL    HW215731   0.183   0.594   7.862  0.3506 -1.1710  0.9616
 4764SOL     OW15732   3.605   4.091   4.148  0.2419 -0.1677 -0.0540
 4764SOL    HW115733   3.514   4.114   4.134  0.5397  0.2282 -1.4652
 4764SOL    HW215734   3.632   4.049   4.066  2.1316  2.3930 -0.8667
 4765SOL     OW15735   1.019   3.191   4.625 -0.4736 -0.4285 -1.1132
 4765SOL    HW115736   0.995   3.109   4.666 -0.9648  0.1531 -0.2083
 4765SOL    HW215737   1.114   3.187   4.616 -0.5097 -1.1483 -1.2164
 4766SOL     OW15738   3.593   3.698   3.781  0.0619  0.2288  0.4322
 4766SOL    HW115739   3.673   3.650   3.801 -0.3020 -0.1634  0.9647
 4766SOL    HW215740   3.583   3.761   3.853 -0.4462 -0.1612  0.7104
 4767SOL     OW15741   2.036   4.932   0.120  0.2495  0.0257  0.3679
 4767SOL    HW115742   1.953   4.908   0.162 -0.4420  0.3141 -0.7829
 4767SOL    HW215743   2.057   5.019   0.155  0.3086 -0.2428  1.0043
 4768SOL     OW15744   6.373   0.836   6.452  0.0457 -0.1442 -0.4699
 4768SOL    HW115745   6.359   0.809   6.361 -1.8670 -2.6458  0.4281
 4768SOL    HW215746   6.448   0.783   6.482 -0.7464 -1.0441 -0.0133
 4769SOL     OW15747   2.289   3.040   4.274 -0.0744 -0.0975  0.0738
 4769SOL    HW115748   2.373   3.084   4.284  0.1744 -0.2596 -1.1766
 4769SOL    HW215749   2.274   3.037   4.180 -1.1419 -0.7114  0.2438
 4770SOL     OW15750   5.308   4.785   5.818  0.2398  0.3982  1.0717
 4770SOL    HW115751   5.344   4.869   5.846  2.7147  0.8877 -2.8068
 4770SOL    HW215752   5.247   4.807   5.748  1.2848 -0.9471 -0.3409
 4771SOL     OW15753   7.701   6.215   2.918  0.0652 -0.2650 -0.2052
 4771SOL    HW115754   7.792   6.196   2.896  0.7499  1.3751  0.9966
 4771SOL    HW215755   7.673   6.279   2.852 -0.4385 -1.2016 -0.9269
 4772SOL     OW15756   1.985   6.582  10.506 -0.2426 -0.1237 -0.2183
 4772SOL    HW115757   2.059   6.560  10.561 -0.1063 -2.8473 -1.3360
 4772SOL    HW215758   1.914   6.604  10.567  0.4160 -1.2536  0.9845
 4773SOL     OW15759   6.324   2.527   5.393 -0.3496 -0.2466 -0.1022
 4773SOL    HW115760   6.331   2.592   5.324 -0.8949 -0.3471 -0.2581
 4773SOL    HW215761   6.414   2.502   5.412  0.0775  2.1949  1.5412
 4774SOL     OW15762   4.890   1.643  11.873  0.1796  0.0102  0.2791
 4774SOL    HW115763   4.953   1.634  11.802 -0.4512  0.0599 -0.2867
 4774SOL    HW215764   4.806   1.652  11.830 -0.2893 -0.6184  1.0427
 4775SOL     OW15765   6.777   4.844   5.578  0.1537  0.4057  0.1605
 4775SOL    HW115766   6.780   4.808   5.667 -1.4484 -0.3669 -0.0817
 4775SOL    HW215767   6.867   4.832   5.546  0.3217 -0.9806  1.0212
 4776SOL     OW15768   1.645   6.205   3.898  0.2864 -0.0001  0.0274
 4776SOL    HW115769   1.588   6.235   3.968  1.4754 -0.3090  1.1675
 4776SOL    HW215770   1.725   6.257   3.908  0.2343  0.4176 -1.5224
 4777SOL     OW15771   5.504   2.442   6.946  0.3842 -0.0170 -0.3513
 4777SOL    HW115772   5.519   2.406   6.858 -0.6265 -2.8319  0.5141
 4777SOL    HW215773   5.467   2.529   6.930  0.3457 -0.3903 -2.7047
 4778SOL     OW15774   1.041   2.932   3.448  0.5632 -0.2777  0.0637
 4778SOL    HW115775   1.032   2.844   3.485 -1.8031 -0.0858  0.1370
 4778SOL    HW215776   1.039   2.918   3.353  1.6587 -0.3906  0.0467
 4779SOL     OW15777   3.368   0.464  11.296  0.6995 -0.5774  0.4071
 4779SOL    HW115778   3.288   0.500  11.333  1.0825 -0.9256  1.6379
 4779SOL    HW215779   3.344   0.376  11.268 -0.0355  0.2855 -1.8719
 4780SOL     OW15780   7.396   5.784   7.723  0.6285  0.1105 -0.1754
 4780SOL    HW115781   7.466   5.777   7.789  0.1292  1.4350  0.5208
 4780SOL    HW215782   7.400   5.700   7.677  0.0841 -1.4905  2.4515
 4781SOL     OW15783   7.159   6.003   0.164 -0.3186 -0.7679  0.1122
 4781SOL    HW115784   7.094   5.935   0.184  1.0075 -2.4814 -1.0668
 4781SOL    HW215785   7.236   5.979   0.216  1.4081 -2.3623 -2.8810
 4782SOL     OW15786   0.043   4.778   7.603 -0.4103 -0.2905  0.0154
 4782SOL    HW115787   0.091   4.803   7.683  0.7414 -1.6290 -0.2132
 4782SOL    HW215788  -0.041   4.823   7.611  0.9723  2.5090  0.2541
 4783SOL     OW15789   7.571   6.440   5.876  0.2693 -0.0684 -0.3572
 4783SOL    HW115790   7.557   6.397   5.961  1.3245 -0.9676 -0.6030
 4783SOL    HW215791   7.579   6.533   5.897 -2.8046  0.1740  0.1082
 4784SOL     OW15792   3.241   5.682   0.907 -0.2958  0.2822  0.1247
 4784SOL    HW115793   3.210   5.747   0.843  0.9756 -0.5026 -1.3429
 4784SOL    HW215794   3.161   5.639   0.937 -0.9230  0.4808 -1.1661
 4785SOL     OW15795   4.524   6.759   0.705  0.2736  0.4483 -0.4203
 4785SOL    HW115796   4.575   6.840   0.704 -0.3539  0.9443  1.7886
 4785SOL    HW215797   4.434   6.787   0.690 -0.2135  0.4752  2.1046
 4786SOL     OW15798   2.185   3.306  11.333 -0.1328  0.7292  0.0838
 4786SOL    HW115799   2.157   3.397  11.329  0.4759  1.0271  1.5983
 4786SOL    HW215800   2.122   3.264  11.391 -0.3770  0.1944 -0.5578
 4787SOL     OW15801   5.483   6.556   2.629 -0.4915 -0.4133 -0.0515
 4787SOL    HW115802   5.482   6.524   2.538 -0.8396 -1.1618  0.2091
 4787SOL    HW215803   5.570   6.596   2.639 -0.7617  0.4223 -0.9655
 4788SOL     OW15804   5.061   4.827  12.111 -0.8074  0.0666  0.1331
 4788SOL    HW115805   5.010   4.907  12.123 -0.6470  0.4599 -1.5482
 4788SOL    HW215806   4.997   4.763  12.081 -1.0167 -0.6016  1.8873
 4789SOL     OW15807   7.134   4.654   1.745 -0.0600  0.6238 -0.1304
 4789SOL    HW115808   7.188   4.598   1.802 -0.3207  0.0019 -0.4786
 4789SOL    HW215809   7.083   4.707   1.806 -0.1500  0.1413  0.2239
 4790SOL     OW15810   2.778   5.446   3.786 -0.4747 -0.2197 -0.1043
 4790SOL    HW115811   2.794   5.351   3.783 -0.6122 -0.2331 -0.6297
 4790SOL    HW215812   2.766   5.466   3.879 -2.8348 -1.1379 -0.1244
 4791SOL     OW15813   3.753   4.405   8.153  0.1778  0.4378 -0.1957
 4791SOL    HW115814   3.733   4.376   8.242 -0.1507 -0.7036 -0.6276
 4791SOL    HW215815   3.751   4.501   8.158 -0.1430  0.3862  0.9452
 4792SOL     OW15816   7.114   7.865   4.157 -0.3356 -0.2103 -0.5237
 4792SOL    HW115817   7.145   7.920   4.085 -0.0348 -1.6088 -1.4883
 4792SOL    HW215818   7.113   7.777   4.122 -0.2047 -0.9349  1.1912
 4793SOL     OW15819   2.970   5.576   4.229 -0.1686  0.1304 -0.0670
 4793SOL    HW115820   2.943   5.667   4.242  1.9305  0.7415  0.4367
 4793SOL    HW215821   2.952   5.534   4.313 -1.2063  0.0434 -0.3209
 4794SOL     OW15822   2.939   2.546   0.360  0.4040  0.1460 -0.1457
 4794SOL    HW115823   2.923   2.505   0.445 -0.2067  2.0990  0.7492
 4794SOL    HW215824   3.022   2.508   0.330  0.2071 -1.1793  0.9171
 4795SOL     OW15825   1.057   7.561   1.103  0.7248  0.3286 -0.5462
 4795SOL    HW115826   1.040   7.654   1.086  1.4987  0.4888 -0.4789
 4795SOL    HW215827   1.022   7.516   1.027 -0.9590  0.5342  0.0659
 4796SOL     OW15828   5.287   0.105   3.378  0.1625  0.0397 -0.6921
 4796SOL    HW115829   5.228   0.179   3.390  0.3855  0.1220 -0.0698
 4796SOL    HW215830   5.360   0.141   3.327 -0.7993 -0.3195 -2.4132
 4797SOL     OW15831   4.446   0.690   6.897 -0.0452  0.2617  0.3745
 4797SOL    HW115832   4.495   0.746   6.956 -0.9284  0.5395  0.8676
 4797SOL    HW215833   4.478   0.601   6.916  1.4430  0.5805 -0.4967
 4798SOL     OW15834   4.267   1.955  11.857 -0.0736  0.0448  0.1896
 4798SOL    HW115835   4.194   1.905  11.894  1.3096 -1.9581  0.3834
 4798SOL    HW215836   4.304   2.002  11.932  1.2349 -2.1010  0.9678
 4799SOL     OW15837   5.809   1.599  12.026  0.7310 -0.2783 -0.1909
 4799SOL    HW115838   5.818   1.614  11.932 -0.1594  0.5298 -0.1637
 4799SOL    HW215839   5.897   1.611  12.062  0.6274  2.0590 -0.5704
 4800SOL     OW15840   3.062   7.940   2.413 -0.0792 -0.7985 -0.1141
 4800SOL    HW115841   3.027   7.970   2.329  0.0557  0.4781  0.2583
 4800SOL    HW215842   3.074   8.020   2.464 -1.7144 -1.6307  1.7413
 4801SOL     OW15843   5.754   5.214   3.575  0.1125  0.2509 -0.3227
 4801SOL    HW115844   5.840   5.210   3.534  0.4363 -0.7357  0.4133
 4801SOL    HW215845   5.731   5.122   3.591 -0.3441  0.5687  0.9914
 4802SOL     OW15846   7.379   2.841   7.263 -0.1685 -0.2012  0.0687
 4802SOL    HW115847   7.386   2.746   7.249 -1.3215 -1.1929  4.5012
 4802SOL    HW215848   7.288   2.862   7.242  0.3736  0.2565 -2.0089
 4803SOL     OW15849   1.185   6.065   0.815  0.0915 -0.2795  0.3638
 4803SOL    HW115850   1.225   6.133   0.760  0.9207 -0.8986  0.1790
 4803SOL    HW215851   1.096   6.056   0.781  0.2674  0.0740 -0.2039
 4804SOL     OW15852   5.612   5.113   6.407  0.5399 -0.2651 -0.5029
 4804SOL    HW115853   5.674   5.045   6.381  0.1520 -1.1349  0.7048
 4804SOL    HW215854   5.651   5.152   6.485  1.5280  2.0438 -2.0672
 4805SOL     OW15855   2.023   4.006   8.613  1.1408 -0.0499  0.3342
 4805SOL    HW115856   2.010   3.960   8.530  3.0364 -1.5991  0.8224
 4805SOL    HW215857   1.941   4.053   8.627 -0.6831 -2.7390 -0.5530
 4806SOL     OW15858   7.075   6.881   0.666  0.4642 -0.2187  0.8370
 4806SOL    HW115859   6.994   6.910   0.706  0.1820 -0.3335  0.3592
 4806SOL    HW215860   7.093   6.946   0.598 -0.5336 -1.4922 -0.7093
 4807SOL     OW15861   2.418   2.815   0.657  0.4182  0.0120 -0.7006
 4807SOL    HW115862   2.418   2.820   0.562  1.4291 -1.6528 -0.8342
 4807SOL    HW215863   2.333   2.777   0.680 -1.4541  3.8330 -0.5898
 4808SOL     OW15864   5.805   4.459   2.562 -0.4135  0.1288  0.1199
 4808SOL    HW115865   5.714   4.464   2.534 -1.0199 -0.9798  1.7668
 4808SOL    HW215866   5.844   4.392   2.505 -0.5693  0.6979 -0.6732
 4809SOL     OW15867   3.128   6.751   2.921 -0.1343 -0.0751 -0.5284
 4809SOL    HW115868   3.172   6.688   2.863 -0.0079  1.2559 -1.9485
 4809SOL    HW215869   3.038   6.719   2.926  0.4614 -1.7199  0.8042
 4810SOL     OW15870   5.870   4.930   5.741  0.3183  0.7705  0.2579
 4810SOL    HW115871   5.930   5.004   5.729 -1.4707  2.1888 -0.3170
 4810SOL    HW215872   5.801   4.944   5.677  0.1658 -1.7104 -0.2009
 4811SOL     OW15873   5.162   0.383   2.773 -0.1917  0.6354  0.1395
 4811SOL    HW115874   5.243   0.432   2.761 -0.2735  0.6392 -0.4088
 4811SOL    HW215875   5.145   0.342   2.688  0.5879 -1.4417  0.9154
 4812SOL     OW15876   3.070   0.468  10.485 -0.0686 -0.4208 -0.1035
 4812SOL    HW115877   3.012   0.392  10.489 -0.2099 -0.3713 -1.0435
 4812SOL    HW215878   3.157   0.432  10.500  0.2976 -1.3179 -3.5462
 4813SOL     OW15879   3.403   1.373   7.927 -0.2220  0.0051 -0.0350
 4813SOL    HW115880   3.308   1.367   7.923 -0.3746  2.2604 -0.6387
 4813SOL    HW215881   3.421   1.416   8.010  0.0020  2.8952 -1.4683
 4814SOL     OW15882   0.422   5.491   9.353 -0.2585 -0.1010  0.0466
 4814SOL    HW115883   0.405   5.445   9.435  0.4860  0.2151  0.3793
 4814SOL    HW215884   0.346   5.470   9.298 -0.7832 -0.2867  0.8231
 4815SOL     OW15885   2.451   5.727   1.335  0.1752  0.2903  0.0389
 4815SOL    HW115886   2.516   5.794   1.354 -0.4583  0.8409  0.3149
 4815SOL    HW215887   2.428   5.742   1.243 -0.2470  0.7047  0.2096
 4816SOL     OW15888   5.953   6.570  10.675  0.3804  0.5063 -0.6160
 4816SOL    HW115889   5.910   6.623  10.607  0.7645  1.6995  0.0572
 4816SOL    HW215890   5.881   6.539  10.729  0.2373  1.2944 -0.3444
 4817SOL     OW15891   4.545   4.649   5.124  0.1416  0.0063 -0.3308
 4817SOL    HW115892   4.473   4.712   5.128 -0.2501 -0.3588  4.6779
 4817SOL    HW215893   4.610   4.683   5.184  1.6004 -2.5259 -0.3595
 4818SOL     OW15894   1.659   2.104   2.482  0.1676 -0.2585 -0.2854
 4818SOL    HW115895   1.592   2.045   2.518  0.1782 -0.5862 -0.7920
 4818SOL    HW215896   1.733   2.095   2.542  0.1912 -0.8075 -0.3892
 4819SOL     OW15897   1.295   4.346   1.143  0.2730 -0.3501  0.2938
 4819SOL    HW115898   1.327   4.320   1.057  2.3999 -0.1674  0.9505
 4819SOL    HW215899   1.200   4.349   1.135  0.3308 -2.0914 -1.5212
 4820SOL     OW15900   6.997   6.096   5.976 -0.2983  0.2922  0.2467
 4820SOL    HW115901   6.960   6.172   5.931  0.7878  2.3954  2.6362
 4820SOL    HW215902   7.036   6.043   5.907  1.1873  3.2442 -1.3435
 4821SOL     OW15903   0.491   3.898   2.037 -0.3048 -0.3798 -0.0487
 4821SOL    HW115904   0.440   3.817   2.036 -3.6539  1.5455 -0.6780
 4821SOL    HW215905   0.494   3.924   2.129  1.5765 -1.5322  0.2899
 4822SOL     OW15906   5.815   2.472  12.397 -0.1048 -0.4436 -0.4058
 4822SOL    HW115907   5.853   2.387  12.375  0.6221 -0.1676 -0.2542
 4822SOL    HW215908   5.730   2.451  12.437 -0.3216 -1.0517 -1.1550
 4823SOL     OW15909   3.260   6.206   9.372  0.2254  0.1487 -0.4921
 4823SOL    HW115910   3.276   6.300   9.383  0.0573  0.1101  0.1732
 4823SOL    HW215911   3.299   6.166   9.451 -0.6721 -0.2224 -0.2285
 4824SOL     OW15912   6.701   5.545  11.330  0.8556  0.7471  0.0944
 4824SOL    HW115913   6.714   5.620  11.271  2.0137 -0.0467 -0.6949
 4824SOL    HW215914   6.672   5.474  11.272 -1.9447  0.9678  1.0557
 4825SOL     OW15915   3.867   3.315   3.514 -0.0033 -0.3063 -0.0987
 4825SOL    HW115916   3.854   3.235   3.462  0.5823  0.5355 -1.6169
 4825SOL    HW215917   3.961   3.330   3.512 -0.1950  1.0302 -0.8560
 4826SOL     OW15918   4.971   1.436   9.989 -0.4287 -0.3469  0.0584
 4826SOL    HW115919   4.984   1.516  10.039  0.2381 -1.1522  1.2022
 4826SOL    HW215920   4.876   1.431   9.976 -0.5907 -0.0046  1.0341
 4827SOL     OW15921   4.307   5.797  12.026 -0.1236  0.2277 -0.3316
 4827SOL    HW115922   4.291   5.752  12.108 -1.9161  2.9624  0.9948
 4827SOL    HW215923   4.245   5.758  11.964 -1.3654  0.5303  0.6703
 4828SOL     OW15924   7.706   3.365  11.764 -0.0083  0.5245 -0.3755
 4828SOL    HW115925   7.769   3.294  11.777 -0.2495  0.5071  0.8587
 4828SOL    HW215926   7.739   3.436  11.819 -1.5669  0.1751  1.1139
 4829SOL     OW15927   2.308   2.679  10.128 -0.2048  0.4405  0.6053
 4829SOL    HW115928   2.346   2.708  10.211 -1.5461 -1.5336  2.0136
 4829SOL    HW215929   2.245   2.747  10.106  0.5424  1.2496  0.9046
 4830SOL     OW15930   4.591   4.538   6.964  0.1847 -0.0569 -0.4440
 4830SOL    HW115931   4.587   4.489   6.882 -0.0244 -0.6755 -0.0695
 4830SOL    HW215932   4.678   4.578   6.963  0.6090 -0.9376 -0.4861
 4831SOL     OW15933   6.182   4.411   8.842 -0.0423 -0.1498 -0.5143
 4831SOL    HW115934   6.184   4.445   8.752 -2.1930 -0.4154 -0.7220
 4831SOL    HW215935   6.160   4.318   8.832 -0.2416 -0.1945  0.2752
 4832SOL     OW15936   7.193   2.457   7.340 -0.0963  0.0513 -0.1648
 4832SOL    HW115937   7.128   2.467   7.271 -0.2338 -3.0669 -0.6004
 4832SOL    HW215938   7.142   2.447   7.420 -0.0671 -0.0550 -0.1594
 4833SOL     OW15939   5.667   2.129   6.588  0.3809 -0.6930 -0.3347
 4833SOL    HW115940   5.591   2.108   6.534  1.4477  0.4462 -2.4279
 4833SOL    HW215941   5.742   2.105   6.533  1.5576 -1.0359  1.3446
 4834SOL     OW15942   4.423   5.720   9.585 -0.1853 -0.9319  0.0516
 4834SOL    HW115943   4.463   5.633   9.591 -1.1667 -1.3317  1.1377
 4834SOL    HW215944   4.493   5.781   9.610  0.9251 -1.2500 -2.0311
 4835SOL     OW15945   0.632   3.700   4.499  1.0292 -0.4673  0.0456
 4835SOL    HW115946   0.587   3.766   4.445  0.5759  0.2101  1.1903
 4835SOL    HW215947   0.565   3.673   4.562  1.3535 -1.7103 -0.1288
 4836SOL     OW15948   2.685   5.356   7.384  0.4033 -0.2269 -0.4572
 4836SOL    HW115949   2.742   5.343   7.459 -1.1924 -0.3511  0.7964
 4836SOL    HW215950   2.679   5.270   7.343 -0.6975 -0.7874  0.7958
 4837SOL     OW15951   4.028   3.994   6.036  0.0071 -0.3666 -0.2279
 4837SOL    HW115952   3.939   4.026   6.019 -0.1356 -0.3520  0.5198
 4837SOL    HW215953   4.082   4.073   6.036 -0.0119 -0.3515 -0.4452
 4838SOL     OW15954   5.072   3.078   4.052  0.1114  0.0368 -0.7641
 4838SOL    HW115955   5.100   3.008   3.993  1.1509 -1.3924  1.3055
 4838SOL    HW215956   5.154   3.114   4.087 -0.4715  0.6495 -0.0052
 4839SOL     OW15957   0.389   0.011   6.814 -0.0725 -0.0585  0.3042
 4839SOL    HW115958   0.463   0.071   6.823 -0.1053  0.1404 -0.6052
 4839SOL    HW215959   0.375   0.005   6.719 -0.6314 -0.8168  0.4245
 4840SOL     OW15960   6.720   7.330   9.863  0.8419 -0.2654 -0.3281
 4840SOL    HW115961   6.736   7.263   9.797 -0.7876 -0.3628 -0.6709
 4840SOL    HW215962   6.626   7.350   9.855  0.5377 -0.3933  2.0300
 4841SOL     OW15963   4.925   6.764   7.523 -0.0301 -0.1650 -0.0776
 4841SOL    HW115964   4.887   6.758   7.611  1.6087 -2.7540  0.5962
 4841SOL    HW215965   4.854   6.740   7.464 -0.0315 -3.1988  0.9945
 4842SOL     OW15966   0.844   2.444  11.010 -0.0411  0.7537  0.5602
 4842SOL    HW115967   0.769   2.384  11.005  1.1231 -0.7862  0.6033
 4842SOL    HW215968   0.849   2.484  10.924 -0.5735  0.4371  0.3767
 4843SOL     OW15969   2.665   7.048   3.314 -0.5319 -0.0926 -0.1213
 4843SOL    HW115970   2.675   6.966   3.362  1.1067 -0.6810 -1.3887
 4843SOL    HW215971   2.750   7.092   3.323 -1.1176  1.0834 -0.1521
 4844SOL     OW15972   2.138   4.021   4.067  0.6821 -0.3430  0.3415
 4844SOL    HW115973   2.179   4.097   4.027 -1.0194  1.0018  0.9838
 4844SOL    HW215974   2.061   4.057   4.111  0.1819 -2.3641  1.2191
 4845SOL     OW15975   7.949   0.324   8.650  0.6432 -0.0481  0.2136
 4845SOL    HW115976   8.002   0.265   8.703  3.2741 -0.2120 -2.3304
 4845SOL    HW215977   7.964   0.295   8.560 -2.9742  0.6735 -0.7614
 4846SOL     OW15978   6.350   3.865   2.597 -0.4748  0.5744  0.5332
 4846SOL    HW115979   6.340   3.888   2.690 -2.0354  0.1627  0.4962
 4846SOL    HW215980   6.396   3.782   2.598  0.0281  0.8486  0.9035
 4847SOL     OW15981   1.688   1.376   8.463 -0.2899  0.1107  0.9078
 4847SOL    HW115982   1.648   1.448   8.513 -2.9190 -0.0237 -0.7827
 4847SOL    HW215983   1.650   1.385   8.376  2.6846 -0.7772 -0.5827
 4848SOL     OW15984   4.133   6.715  10.749 -0.1029 -0.0295  0.0799
 4848SOL    HW115985   4.134   6.691  10.842  0.7199 -1.8013 -0.3436
 4848SOL    HW215986   4.126   6.632  10.703  2.3562  0.5590 -1.5119
 4849SOL     OW15987   4.712   5.278   2.958  0.1243  0.2161 -0.2954
 4849SOL    HW115988   4.657   5.284   3.036  1.0630  0.5388  0.3650
 4849SOL    HW215989   4.801   5.271   2.992  0.4942 -0.3783 -1.3336
 4850SOL     OW15990   1.523   7.676   2.332 -0.4583  0.0440  0.5560
 4850SOL    HW115991   1.513   7.747   2.268  0.6211  0.9154  1.3260
 4850SOL    HW215992   1.490   7.599   2.286 -1.5403  0.9938 -0.3568
 4851SOL     OW15993   0.652   3.551   5.594 -0.0227 -0.2808 -0.1330
 4851SOL    HW115994   0.660   3.492   5.518 -1.0944  1.5762 -1.7720
 4851SOL    HW215995   0.701   3.629   5.569 -0.2095  0.2928  1.2160
 4852SOL     OW15996   5.898   6.823   3.239  0.0348  0.6514  0.2116
 4852SOL    HW115997   5.889   6.892   3.173 -0.0101  0.1728 -0.2857
 4852SOL    HW215998   5.810   6.784   3.245 -0.2596  1.4352  1.3859
 4853SOL     OW15999   4.598   6.294   7.923 -0.1232  0.0723 -0.4389
 4853SOL    HW116000   4.587   6.353   7.848 -1.0170 -0.5999 -0.8511
 4853SOL    HW216001   4.690   6.304   7.948  0.6572 -0.8917 -2.6554
 4854SOL     OW16002   3.818   3.942  12.082 -0.0498  0.4135  0.1571
 4854SOL    HW116003   3.745   4.004  12.078 -0.2667  0.1024 -0.8189
 4854SOL    HW216004   3.780   3.857  12.060  0.6079  0.2583 -0.4126
 4855SOL     OW16005   7.630   0.586   7.509 -0.4989 -0.0087 -0.6378
 4855SOL    HW116006   7.691   0.529   7.462 -0.8297 -0.6277 -0.3343
 4855SOL    HW216007   7.549   0.535   7.513 -1.4415  1.2806 -2.1360
 4856SOL     OW16008   4.001   2.350   6.422 -0.2666  0.2960 -0.2693
 4856SOL    HW116009   3.959   2.356   6.508 -0.5018 -0.2222 -0.3446
 4856SOL    HW216010   4.093   2.337   6.442 -0.7040 -3.6354  0.0326
 4857SOL     OW16011   7.599   2.962   1.828  0.7406  0.7034 -0.2776
 4857SOL    HW116012   7.620   3.048   1.790 -1.5707  0.1932 -3.0879
 4857SOL    HW216013   7.548   2.982   1.907  1.5917  1.8895 -0.0067
 4858SOL     OW16014   0.867   5.341   9.459 -0.2231 -0.1864  0.7413
 4858SOL    HW116015   0.830   5.424   9.431  1.1338  0.6178  1.2084
 4858SOL    HW216016   0.837   5.329   9.549  1.1994  0.8413  1.3849
 4859SOL     OW16017   3.681   4.302   4.677  0.3743 -0.8759  0.1591
 4859SOL    HW116018   3.743   4.257   4.619 -1.1182 -0.9938 -1.4194
 4859SOL    HW216019   3.735   4.332   4.751  2.2432 -1.2533 -0.9807
 4860SOL     OW16020   2.120   4.542   5.314 -0.2487  0.5339 -0.2670
 4860SOL    HW116021   2.139   4.633   5.288 -0.6908  1.4767  2.4273
 4860SOL    HW216022   2.199   4.513   5.359 -0.9471  0.4508  0.9464
 4861SOL     OW16023   6.652   1.358  12.407 -0.2047 -0.2630 -0.6811
 4861SOL    HW116024   6.741   1.338  12.377 -0.0603 -1.7850  0.6461
 4861SOL    HW216025   6.598   1.289  12.371 -0.7644  0.3158 -0.9719
 4862SOL     OW16026   4.094   1.444   4.324 -0.5145 -0.5637  0.0916
 4862SOL    HW116027   4.048   1.360   4.333  0.5361 -1.2108 -0.3228
 4862SOL    HW216028   4.034   1.499   4.274 -2.1606 -0.2867  2.2159
 4863SOL     OW16029   2.758   1.259   7.293  0.3032  0.1743 -0.4375
 4863SOL    HW116030   2.678   1.208   7.303 -0.2310  0.7902 -1.4356
 4863SOL    HW216031   2.743   1.313   7.215  1.2673  1.0752 -0.0262
 4864SOL     OW16032   2.796   1.052  11.270 -0.3702  0.8050 -0.0678
 4864SOL    HW116033   2.836   1.058  11.183 -0.8104  0.5703 -0.2864
 4864SOL    HW216034   2.703   1.068  11.255 -0.2434  2.2586  0.5619
 4865SOL     OW16035   1.462   0.545   8.197 -0.7218  0.1915  0.0867
 4865SOL    HW116036   1.436   0.592   8.118  0.9541 -0.1147 -0.6723
 4865SOL    HW216037   1.390   0.562   8.259 -1.4376  1.5198 -1.0460
 4866SOL     OW16038   6.176   3.709   5.349 -0.4504 -0.0568 -0.6305
 4866SOL    HW116039   6.082   3.728   5.347 -0.3711  0.3097 -1.0835
 4866SOL    HW216040   6.183   3.625   5.395 -1.0992 -0.6950 -1.6738
 4867SOL     OW16041   3.523   0.321   2.076 -0.1351 -0.1197  0.3134
 4867SOL    HW116042   3.602   0.326   2.129 -0.4997 -0.9637  0.9571
 4867SOL    HW216043   3.514   0.409   2.038  0.5561  0.2704  1.0213
 4868SOL     OW16044   1.062   4.267   2.170 -1.1051 -0.2946  0.3289
 4868SOL    HW116045   0.989   4.242   2.114  0.1117  2.4058 -2.7781
 4868SOL    HW216046   1.140   4.239   2.123 -0.0186 -0.5645  2.1697
 4869SOL     OW16047   4.924   4.445  10.984  0.1728 -0.2973 -0.4705
 4869SOL    HW116048   4.897   4.535  10.966  0.8098  0.2096  0.9710
 4869SOL    HW216049   4.843   4.399  11.004  0.0920  0.7504  1.9367
 4870SOL     OW16050   6.554   3.282   2.606 -0.0684 -0.1766 -0.3613
 4870SOL    HW116051   6.634   3.231   2.619  0.4534  0.1803 -1.8925
 4870SOL    HW216052   6.557   3.307   2.513 -1.8660  0.0170 -0.3975
 4871SOL     OW16053   5.150   0.814   6.697  0.0999 -0.0290 -0.6953
 4871SOL    HW116054   5.072   0.866   6.677 -2.1897 -2.1142  2.0554
 4871SOL    HW216055   5.192   0.861   6.769  0.6002  0.3188 -1.2037
 4872SOL     OW16056   4.695   0.386   5.964 -0.1726  0.0042  0.1759
 4872SOL    HW116057   4.610   0.407   5.926 -0.7613 -1.9397  0.3196
 4872SOL    HW216058   4.675   0.333   6.041  1.1594 -0.6026  0.1395
 4873SOL     OW16059   1.354   7.646   7.943 -0.3511 -0.1449  0.0154
 4873SOL    HW116060   1.440   7.645   7.986  0.1151  0.6583 -0.8513
 4873SOL    HW216061   1.323   7.556   7.950 -1.0796  0.2386  3.4981
 4874SOL     OW16062   7.359   2.773  10.555 -0.1636  0.3482 -0.0821
 4874SOL    HW116063   7.415   2.696  10.542  0.4849  0.8376 -0.2054
 4874SOL    HW216064   7.304   2.749  10.629  2.0778  0.8853  1.8680
 4875SOL     OW16065   2.331   5.505  11.813  0.2989  0.1549  0.1377
 4875SOL    HW116066   2.410   5.451  11.813  0.8292  0.8669 -1.9404
 4875SOL    HW216067   2.293   5.492  11.726 -0.7259  1.4582  0.3680
 4876SOL     OW16068   3.417   1.703   5.225 -0.2363  0.4998 -0.0584
 4876SOL    HW116069   3.434   1.610   5.211  0.7963  0.3700  1.7050
 4876SOL    HW216070   3.470   1.748   5.158  3.0754 -0.1003  1.9162
 4877SOL     OW16071   4.173   0.752   9.937 -0.2055  0.1200  0.1376
 4877SOL    HW116072   4.259   0.743   9.896 -0.6663 -0.6981 -0.6916
 4877SOL    HW216073   4.113   0.763   9.863 -0.9589 -0.6076  0.6372
 4878SOL     OW16074   4.355   6.661   1.733 -0.5158  0.3544  1.0142
 4878SOL    HW116075   4.275   6.648   1.683 -0.6448  0.0398  1.2993
 4878SOL    HW216076   4.369   6.578   1.778  0.0396  0.3635  0.8671
 4879SOL     OW16077   7.054   6.842   7.745  0.2505  0.1793  0.1175
 4879SOL    HW116078   7.082   6.880   7.828 -0.7386  0.3173  0.4057
 4879SOL    HW216079   7.012   6.915   7.698 -0.2748 -0.1838  0.0133
 4880SOL     OW16080   5.238   2.044   3.686  0.3269  0.4835  0.2784
 4880SOL    HW116081   5.195   1.990   3.619  1.8381  1.0485 -1.2038
 4880SOL    HW216082   5.269   1.981   3.750  0.0373 -0.2051 -0.2399
 4881SOL     OW16083   3.726   0.503  11.259 -0.0313  0.2714  1.0329
 4881SOL    HW116084   3.721   0.425  11.314  1.8752 -1.1021 -0.5858
 4881SOL    HW216085   3.660   0.487  11.191  1.1151 -0.5314  0.0664
 4882SOL     OW16086   2.095   1.385   2.497  0.5898 -0.3030 -0.2684
 4882SOL    HW116087   2.174   1.402   2.549  0.7953  1.8706 -1.1745
 4882SOL    HW216088   2.064   1.472   2.472 -0.1977 -1.2057 -2.7372
 4883SOL     OW16089   0.711   6.826   0.808  0.3370  0.0630  0.3698
 4883SOL    HW116090   0.677   6.912   0.834  0.8315  0.0316  1.1575
 4883SOL    HW216091   0.699   6.771   0.885 -1.1393 -0.9469 -0.5297
 4884SOL     OW16092   5.075   6.115   4.354 -0.3950  0.3398 -0.1333
 4884SOL    HW116093   5.166   6.139   4.335  0.0077 -0.5327  0.6420
 4884SOL    HW216094   5.059   6.036   4.302  0.0401 -0.8339  1.4622
 4885SOL     OW16095   6.271   6.308   7.586 -0.3258 -0.2058 -0.2606
 4885SOL    HW116096   6.228   6.275   7.665 -0.8154 -0.6713 -0.7114
 4885SOL    HW216097   6.214   6.379   7.556 -2.3507 -2.5107 -2.3469
 4886SOL     OW16098   0.880   6.639  11.515 -0.4854  0.5285  0.5231
 4886SOL    HW116099   0.866   6.701  11.587 -1.1979  1.1386 -0.1378
 4886SOL    HW216100   0.869   6.690  11.436 -0.0824 -0.2311 -0.0375
 4887SOL     OW16101   2.775   5.452   1.829  0.4563 -0.2073 -0.1125
 4887SOL    HW116102   2.825   5.376   1.858  1.7644  0.7156  0.1455
 4887SOL    HW216103   2.812   5.473   1.743  1.1323  0.9908  0.4432
 4888SOL     OW16104   5.739   0.789   1.705 -0.2509 -0.0066  0.1145
 4888SOL    HW116105   5.803   0.859   1.690  1.8083 -1.5176  1.3909
 4888SOL    HW216106   5.714   0.798   1.797  0.4254 -1.2283  0.4338
 4889SOL     OW16107   7.817   5.994   8.144  0.0094 -0.5327 -0.1307
 4889SOL    HW116108   7.775   6.064   8.094  0.9659  1.2444  1.4146
 4889SOL    HW216109   7.750   5.964   8.204  0.1868  0.6042  0.6713
 4890SOL     OW16110   6.308   3.118   4.495 -0.4512 -0.2156  0.0597
 4890SOL    HW116111   6.353   3.086   4.416 -0.0157  0.7359 -0.0993
 4890SOL    HW216112   6.234   3.169   4.460 -0.9527 -0.7724  0.2984
 4891SOL     OW16113   0.079   0.667   5.134 -0.2737 -0.8179  0.3123
 4891SOL    HW116114   0.043   0.578   5.131 -0.7048 -0.6340 -0.1504
 4891SOL    HW216115   0.171   0.657   5.113 -0.5772 -1.0232 -0.9877
 4892SOL     OW16116   2.476   5.762  12.240 -0.2037 -0.5532 -0.8717
 4892SOL    HW116117   2.466   5.856  12.249  1.4692 -0.4947  1.1798
 4892SOL    HW216118   2.570   5.747  12.247 -0.3602 -2.3063 -2.0569
 4893SOL     OW16119   3.412   6.047   2.392 -0.2724  0.1070 -0.5086
 4893SOL    HW116120   3.349   5.996   2.443  1.9421  0.1024  2.4409
 4893SOL    HW216121   3.437   5.989   2.320  1.1319 -2.5739  1.9445
 4894SOL     OW16122   4.096   5.937  11.425  0.4782  0.3136  0.3779
 4894SOL    HW116123   4.108   5.864  11.486  1.8947  0.2184  0.0290
 4894SOL    HW216124   4.081   5.894  11.340 -0.6270  0.4482  0.4866
 4895SOL     OW16125   0.808   7.964   9.487 -0.2832 -0.8104  0.1296
 4895SOL    HW116126   0.745   7.904   9.446 -0.2264 -0.3722 -0.6099
 4895SOL    HW216127   0.854   8.004   9.413  0.3109 -0.5340  0.6477
 4896SOL     OW16128   4.342   2.656   1.891 -0.4937  0.4900 -0.1898
 4896SOL    HW116129   4.344   2.620   1.803 -0.5521 -0.5829  0.2389
 4896SOL    HW216130   4.410   2.724   1.890  1.7334 -1.5785 -0.2120
 4897SOL     OW16131   0.724   7.159   6.987  0.5998 -0.5910 -0.0663
 4897SOL    HW116132   0.802   7.144   7.039  2.0625  0.7651 -1.7081
 4897SOL    HW216133   0.748   7.231   6.928 -2.4764  1.1358  0.5428
 4898SOL     OW16134   5.851   4.025   1.958 -0.3102 -0.3605  0.2178
 4898SOL    HW116135   5.827   4.111   1.924 -0.7468 -0.1006  1.1471
 4898SOL    HW216136   5.854   4.037   2.053  3.9015 -0.2717  0.2264
 4899SOL     OW16137   3.906   2.644   6.164 -0.0630 -0.2342 -0.4564
 4899SOL    HW116138   3.972   2.713   6.168  1.2651 -1.3808 -1.5949
 4899SOL    HW216139   3.864   2.646   6.250 -1.7234  3.5235 -1.1391
 4900SOL     OW16140   2.455   4.743   7.278  0.6064 -0.0872  0.4966
 4900SOL    HW116141   2.423   4.764   7.366 -1.0035 -0.0681 -0.0521
 4900SOL    HW216142   2.454   4.648   7.274 -2.7407 -0.1311 -0.5825
 4901SOL     OW16143   3.475   3.801  10.265  0.7008 -0.0757  0.3023
 4901SOL    HW116144   3.548   3.772  10.319 -0.1906 -0.9500  1.0780
 4901SOL    HW216145   3.488   3.755  10.182  0.7197 -0.6816  0.6353
 4902SOL     OW16146   5.982   0.846   7.372  0.5211 -0.1450  0.0986
 4902SOL    HW116147   6.046   0.916   7.385  1.8193 -1.6696  2.7194
 4902SOL    HW216148   6.033   0.765   7.378 -0.9105 -1.4095 -2.8848
 4903SOL     OW16149   1.837   5.206   9.914  0.0326  0.6021  0.3209
 4903SOL    HW116150   1.856   5.127   9.864  1.6368  0.9319  0.3399
 4903SOL    HW216151   1.744   5.200   9.934  0.3701 -1.9885  1.5399
 4904SOL     OW16152   0.878   6.201   0.559 -0.3962  0.4052 -0.5293
 4904SOL    HW116153   0.896   6.117   0.599  0.8290  0.9400  0.0850
 4904SOL    HW216154   0.820   6.246   0.621 -1.2451 -0.0577 -0.9694
 4905SOL     OW16155   7.852   0.898  11.016  0.2045 -0.2172  0.0098
 4905SOL    HW116156   7.846   0.807  10.988 -0.2459 -0.3586  0.5516
 4905SOL    HW216157   7.783   0.907  11.083  0.6972  0.3331  0.4508
 4906SOL     OW16158   0.483   4.341  11.634  0.0863 -0.4414  0.1306
 4906SOL    HW116159   0.509   4.414  11.578 -0.5683 -0.3408 -0.0463
 4906SOL    HW216160   0.452   4.382  11.714  0.7175 -0.5743  0.4535
 4907SOL     OW16161   0.429   2.162   9.970  0.0499 -0.1205 -0.2253
 4907SOL    HW116162   0.519   2.165  10.002  0.3525 -0.9468 -0.9480
 4907SOL    HW216163   0.419   2.240   9.916  0.2895  0.0437 -0.0333
 4908SOL     OW16164   4.334   1.623  10.649  0.0169 -0.2699  0.6326
 4908SOL    HW116165   4.338   1.718  10.642  0.2872 -0.3364 -0.2124
 4908SOL    HW216166   4.418   1.597  10.687  0.3486 -0.2382 -0.0571
 4909SOL     OW16167   7.107   5.551  11.692  0.0606  0.0463  0.3132
 4909SOL    HW116168   7.122   5.461  11.721  1.0346 -0.3650 -1.3343
 4909SOL    HW216169   7.023   5.548  11.647  0.0690 -0.0137  0.3025
 4910SOL     OW16170   0.755   0.861   7.259  0.2747  0.0549  0.0843
 4910SOL    HW116171   0.843   0.863   7.297 -0.3302  0.3917  1.5673
 4910SOL    HW216172   0.721   0.950   7.273 -1.4126 -0.8323  2.4800
 4911SOL     OW16173   7.696   5.833   1.705  0.0015  0.1797 -0.5174
 4911SOL    HW116174   7.671   5.741   1.694 -0.3759  0.4523 -2.1714
 4911SOL    HW216175   7.711   5.864   1.616  2.4106  1.1122  0.1449
 4912SOL     OW16176   5.877   4.021   9.239 -0.1498 -0.6732 -0.2063
 4912SOL    HW116177   5.820   4.088   9.278 -0.8166 -1.2019 -0.2513
 4912SOL    HW216178   5.944   4.071   9.193 -0.8778 -0.0220 -0.5951
 4913SOL     OW16179   6.955   2.751   8.635 -0.1453  0.1483 -0.7281
 4913SOL    HW116180   7.044   2.775   8.607  0.1315  1.2621  0.9557
 4913SOL    HW216181   6.901   2.767   8.558  1.0561 -0.1728 -1.6716
 4914SOL     OW16182   3.956   6.306   7.522  0.6191  0.3296  0.3640
 4914SOL    HW116183   3.997   6.219   7.524 -0.8578 -0.4342 -0.7840
 4914SOL    HW216184   3.926   6.321   7.612  0.3667 -0.6075  0.4413
 4915SOL     OW16185   5.353   0.544   8.925 -0.1795  0.6076  0.0287
 4915SOL    HW116186   5.448   0.537   8.919 -0.1488  0.0609  0.9421
 4915SOL    HW216187   5.320   0.481   8.862  0.0937 -1.1098  1.5193
 4916SOL     OW16188   5.066   7.557   5.326  0.2090  0.5087  0.2766
 4916SOL    HW116189   5.006   7.541   5.253 -0.1283 -0.3771  0.7338
 4916SOL    HW216190   5.059   7.479   5.380  3.0170 -0.3697 -0.4828
 4917SOL     OW16191   4.317   4.277  11.145 -0.2833  0.6291 -0.5829
 4917SOL    HW116192   4.405   4.260  11.180  0.0803 -0.1369 -1.8208
 4917SOL    HW216193   4.258   4.258  11.218  0.5682  1.0951  0.2508
 4918SOL     OW16194   7.156   0.757   3.976  0.0700 -0.4665 -0.6213
 4918SOL    HW116195   7.249   0.777   3.992  0.1598 -0.1029 -1.5318
 4918SOL    HW216196   7.149   0.749   3.881 -1.4989  3.0853 -0.9607
 4919SOL     OW16197   6.170   5.042   2.970  0.4608  0.1314  0.4383
 4919SOL    HW116198   6.110   5.093   2.915 -1.0596 -1.1256  0.8347
 4919SOL    HW216199   6.254   5.048   2.926 -0.1762  1.1290 -0.7156
 4920SOL     OW16200   7.489   3.493   1.564  0.2669  0.1513 -0.3411
 4920SOL    HW116201   7.495   3.442   1.645  0.6497 -0.5033 -0.7728
 4920SOL    HW216202   7.519   3.433   1.496 -0.5369  0.5205 -1.0428
 4921SOL     OW16203   2.938   3.506   2.408 -0.1967  0.3268 -0.2997
 4921SOL    HW116204   2.958   3.599   2.420  1.1707  0.0374 -0.1692
 4921SOL    HW216205   2.925   3.473   2.497 -0.8980  0.4338 -0.3602
 4922SOL     OW16206   0.195   6.172   2.331  0.2434  0.0115  0.0521
 4922SOL    HW116207   0.168   6.199   2.243 -1.5557 -0.4871  0.4085
 4922SOL    HW216208   0.179   6.078   2.333  2.1428 -0.3549  0.3092
 4923SOL     OW16209   2.180   5.794   7.223  0.4254 -0.2243 -0.2793
 4923SOL    HW116210   2.170   5.699   7.221  0.4814 -0.2530  0.4376
 4923SOL    HW216211   2.122   5.826   7.154 -0.6323 -0.7063  0.3556
 4924SOL     OW16212   1.176   2.987   2.525  0.3524  0.6668 -0.0408
 4924SOL    HW116213   1.108   2.932   2.487 -0.0517  1.0208  0.1678
 4924SOL    HW216214   1.190   3.056   2.460  0.5900  0.5399 -0.1289
 4925SOL     OW16215   0.618   0.650   0.617  0.1970 -0.3299 -0.2794
 4925SOL    HW116216   0.622   0.739   0.652  0.0277 -0.6413  0.5429
 4925SOL    HW216217   0.646   0.594   0.689  0.3815 -0.9433 -0.8138
 4926SOL     OW16218   0.948   6.581   7.272  0.7982 -0.5353  0.7058
 4926SOL    HW116219   0.863   6.603   7.312 -1.0626 -0.5030 -2.8441
 4926SOL    HW216220   0.941   6.488   7.252  1.8530 -0.6576  0.8988
 4927SOL     OW16221   0.452   1.746   2.843  0.6862 -0.0230  0.4067
 4927SOL    HW116222   0.445   1.651   2.830  0.2865 -0.0440  0.7682
 4927SOL    HW216223   0.374   1.782   2.801  0.2798  0.0523  1.2141
 4928SOL     OW16224   2.125   3.962   9.181 -0.4515  0.2487 -0.5264
 4928SOL    HW116225   2.196   4.008   9.137 -0.8030  1.3228  0.0046
 4928SOL    HW216226   2.148   3.964   9.274 -0.9131  0.1424 -0.4072
 4929SOL     OW16227   7.291   0.452   0.948 -0.2703 -0.0862 -0.0659
 4929SOL    HW116228   7.222   0.427   0.886  0.4502 -0.3770 -0.7742
 4929SOL    HW216229   7.368   0.404   0.918  0.8450  2.0016 -0.6833
 4930SOL     OW16230   1.184   4.497   3.521 -0.2567  0.2125  0.8376
 4930SOL    HW116231   1.115   4.447   3.565 -0.1997  0.5050  1.2647
 4930SOL    HW216232   1.234   4.536   3.593  0.3437  0.0184  0.5310
 4931SOL     OW16233   1.591   6.710   1.623  0.4852 -0.0917  0.0910
 4931SOL    HW116234   1.501   6.738   1.607  0.3854 -1.2154 -1.5419
 4931SOL    HW216235   1.609   6.739   1.712 -2.4620 -2.2701  1.5951
 4932SOL     OW16236   3.549   4.509   1.386 -0.4511  0.1128 -0.0971
 4932SOL    HW116237   3.552   4.417   1.359 -1.0353 -0.0236  0.2928
 4932SOL    HW216238   3.565   4.559   1.306  0.1458 -0.3297 -0.2615
 4933SOL     OW16239   6.544   5.768   5.488  0.3436  0.0176  0.2453
 4933SOL    HW116240   6.460   5.731   5.512  0.2816 -0.2655 -0.3786
 4933SOL    HW216241   6.526   5.861   5.471 -0.1462 -0.3305 -1.2916
 4934SOL     OW16242   5.008   3.010   6.507 -0.4232 -0.3193 -0.7881
 4934SOL    HW116243   4.995   3.105   6.516  1.6052 -0.1396  0.9158
 4934SOL    HW216244   5.045   2.982   6.591 -1.0884 -2.6744 -1.2025
 4935SOL     OW16245   4.339   6.509   2.892  0.3123 -0.1289 -0.0006
 4935SOL    HW116246   4.329   6.564   2.814 -1.0980 -2.5109 -1.6330
 4935SOL    HW216247   4.405   6.444   2.867  0.7677 -0.1875  1.2791
 4936SOL     OW16248   3.821   5.093   6.866 -0.3976 -0.3435  0.0948
 4936SOL    HW116249   3.807   4.999   6.880 -1.5773 -0.3497 -0.9106
 4936SOL    HW216250   3.794   5.133   6.949 -1.8821 -0.7624 -0.1567
 4937SOL     OW16251   1.991   2.208   1.932  0.6595 -0.6540 -0.4957
 4937SOL    HW116252   2.046   2.190   2.009 -0.5901 -1.7313  0.1755
 4937SOL    HW216253   1.916   2.150   1.942 -0.5123  0.6338 -1.5040
 4938SOL     OW16254   3.687   1.617   6.388 -0.5101  0.4590 -0.5787
 4938SOL    HW116255   3.738   1.667   6.451 -3.1032  1.4405  0.9015
 4938SOL    HW216256   3.732   1.533   6.380  0.2133  0.5029  2.2126
 4939SOL     OW16257   1.833   1.302   6.658  0.4905 -0.2363 -0.2207
 4939SOL    HW116258   1.786   1.259   6.587  1.1814 -1.0610 -0.1938
 4939SOL    HW216259   1.906   1.346   6.615  0.0191  0.5786 -0.1984
 4940SOL     OW16260   4.755   5.760   0.914  0.0580 -0.3748  0.1083
 4940SOL    HW116261   4.814   5.743   0.987  0.1783  0.1092  0.1264
 4940SOL    HW216262   4.712   5.676   0.897  1.0695 -0.8458 -0.1828
 4941SOL     OW16263   7.701   7.313   0.539 -0.2982  0.2182  0.1470
 4941SOL    HW116264   7.766   7.313   0.469 -0.2660  0.7455  0.1704
 4941SOL    HW216265   7.706   7.401   0.576 -0.8944  0.2043  0.2717
 4942SOL     OW16266   1.979   2.190   7.120  0.4225 -0.1270  0.3045
 4942SOL    HW116267   1.922   2.210   7.195 -0.2421 -1.0119  0.0448
 4942SOL    HW216268   1.990   2.274   7.076  0.1427  0.2455  0.9244
 4943SOL     OW16269   0.274   3.185   4.017 -0.2389 -0.1681 -0.5498
 4943SOL    HW116270   0.277   3.125   4.091  1.1620 -1.3051 -1.4625
 4943SOL    HW216271   0.333   3.256   4.041 -2.9672  1.7202  1.1397
 4944SOL     OW16272   2.408   4.398   4.795  0.0859  0.5424 -0.3801
 4944SOL    HW116273   2.338   4.398   4.730 -0.2834  1.6679 -0.0060
 4944SOL    HW216274   2.447   4.311   4.788  0.7319  0.9740 -2.8114
 4945SOL     OW16275   3.962   7.444   2.214  0.0166 -0.4583 -0.1550
 4945SOL    HW116276   3.944   7.441   2.120  1.8248 -0.9773 -0.5307
 4945SOL    HW216277   3.954   7.537   2.237 -0.1465 -0.2868 -0.8900
 4946SOL     OW16278   3.157   1.777   7.285  0.4614  0.2391  0.3156
 4946SOL    HW116279   3.239   1.735   7.309  0.0864 -0.5744  0.2167
 4946SOL    HW216280   3.112   1.712   7.230 -0.5396  0.4027  0.9147
 4947SOL     OW16281   4.267   2.339   6.168  0.4898 -0.3095 -0.1171
 4947SOL    HW116282   4.299   2.359   6.080  0.5443  1.5260  0.2691
 4947SOL    HW216283   4.190   2.395   6.179  0.8443 -0.0438  1.2162
 4948SOL     OW16284   0.109   1.913   3.328  0.5111  0.0316  1.1195
 4948SOL    HW116285   0.166   1.892   3.401  1.7208 -0.8536 -0.0490
 4948SOL    HW216286   0.167   1.920   3.252 -1.0562 -3.0555 -0.5745
 4949SOL     OW16287   7.114   3.582   0.558 -0.0806  0.0295  0.4799
 4949SOL    HW116288   7.193   3.532   0.577 -1.6881 -1.7447  3.2500
 4949SOL    HW216289   7.075   3.538   0.482  0.1516 -0.9261  0.9035
 4950SOL     OW16290   2.952   4.803   0.470 -0.1196  0.1079  0.0197
 4950SOL    HW116291   2.912   4.890   0.470 -1.8026 -0.6054  1.3103
 4950SOL    HW216292   3.046   4.820   0.463 -0.4661  1.9744 -0.7073
 4951SOL     OW16293   3.453   0.168  12.307  0.0436 -0.3349  0.1797
 4951SOL    HW116294   3.425   0.234  12.371  1.1895 -0.7984  1.2038
 4951SOL    HW216295   3.485   0.219  12.233  0.5222  0.2664  0.7881
 4952SOL     OW16296   6.998   7.322   5.954 -0.0078  0.3105 -0.5791
 4952SOL    HW116297   6.929   7.273   5.909  0.3553 -1.0449  0.2843
 4952SOL    HW216298   7.014   7.397   5.897 -2.1504  0.6468 -0.8251
 4953SOL     OW16299   0.370   3.759  10.511 -0.2699  0.1586  0.1540
 4953SOL    HW116300   0.417   3.701  10.571 -1.1179  0.6019  1.2693
 4953SOL    HW216301   0.380   3.717  10.425  3.0778  0.7806  0.0947
 4954SOL     OW16302   1.094   1.817   4.952  0.3969 -0.2054  0.4056
 4954SOL    HW116303   1.126   1.740   4.999 -1.6710 -0.2399  1.8852
 4954SOL    HW216304   0.999   1.812   4.960  0.1100  1.4386 -1.2379
 4955SOL     OW16305   2.001   2.898   1.575 -0.0813 -0.5148  0.1991
 4955SOL    HW116306   1.953   2.815   1.577 -2.7727  0.7968 -2.0734
 4955SOL    HW216307   2.052   2.895   1.495 -0.7037  0.2454 -0.2395
 4956SOL     OW16308   1.837   6.849   6.504  0.3513  0.6026  0.3073
 4956SOL    HW116309   1.780   6.922   6.483 -0.1368 -0.0630 -0.7291
 4956SOL    HW216310   1.789   6.798   6.569  1.3536  2.0029  2.2752
 4957SOL     OW16311   4.958   0.994   4.969  0.8163  0.2419 -0.2095
 4957SOL    HW116312   5.010   1.047   5.030  0.9356  0.5264 -0.5553
 4957SOL    HW216313   4.875   1.040   4.963  0.8817  0.3305 -0.4277
 4958SOL     OW16314   4.722   0.791   2.306  0.0032  0.4295  0.5044
 4958SOL    HW116315   4.672   0.857   2.258  0.2282  2.2675  2.6216
 4958SOL    HW216316   4.658   0.722   2.326 -0.6802  0.8288 -0.2481
 4959SOL     OW16317   7.214   0.566  11.608 -0.3626 -0.1008  0.0384
 4959SOL    HW116318   7.175   0.595  11.526  0.8746  0.1169 -0.4885
 4959SOL    HW216319   7.241   0.647  11.652 -1.5062 -0.1751  0.9411
 4960SOL     OW16320   0.577   4.415   4.141  0.2876  0.2019 -0.4361
 4960SOL    HW116321   0.638   4.364   4.087 -0.5925 -2.1411  0.6245
 4960SOL    HW216322   0.625   4.493   4.166  0.5417  1.8569 -5.1372
 4961SOL     OW16323   4.379   7.381   6.146 -0.7089  0.5591  0.1188
 4961SOL    HW116324   4.305   7.404   6.203  0.1075 -0.0488  1.4874
 4961SOL    HW216325   4.361   7.291   6.118  0.9592 -0.8522  3.0782
 4962SOL     OW16326   0.223   1.616   9.724  0.5912  0.0717  0.1815
 4962SOL    HW116327   0.181   1.675   9.786  0.4134  0.7748 -0.5866
 4962SOL    HW216328   0.188   1.642   9.638  1.9035  0.0997 -0.3771
 4963SOL     OW16329   2.987   3.274   6.146  0.4924  0.2460 -0.6732
 4963SOL    HW116330   2.988   3.354   6.198 -1.0894 -0.8168  1.1272
 4963SOL    HW216331   2.926   3.293   6.074 -1.1037  0.2320  0.6032
 4964SOL     OW16332   2.134   5.455  10.197 -0.0168  0.0506 -0.2323
 4964SOL    HW116333   2.110   5.437  10.106 -0.0276  0.6403 -0.3473
 4964SOL    HW216334   2.108   5.546  10.211  0.3131  0.0696  0.2521
 4965SOL     OW16335   3.750   5.026   9.955 -0.2624  0.0946  0.2062
 4965SOL    HW116336   3.797   4.958   9.908  1.5014 -0.4427  2.5289
 4965SOL    HW216337   3.658   5.004   9.944  0.2338 -2.4086  0.4569
 4966SOL     OW16338   5.387   5.658   4.337 -0.2780 -0.4436 -0.0766
 4966SOL    HW116339   5.372   5.730   4.276 -0.1259 -0.7471 -0.4777
 4966SOL    HW216340   5.454   5.689   4.397  1.7910 -1.1867 -1.8720
 4967SOL     OW16341   7.805   6.821   8.238  0.6235  0.0672  0.4233
 4967SOL    HW116342   7.757   6.743   8.265 -0.2711  0.8011  1.0369
 4967SOL    HW216343   7.828   6.806   8.147 -0.8493 -0.2856  0.0871
 4968SOL     OW16344   5.861   1.085   6.983 -0.1177 -0.9911  0.2877
 4968SOL    HW116345   5.792   1.021   7.002 -0.0226 -0.8866  1.0068
 4968SOL    HW216346   5.918   1.082   7.059 -1.5993  1.8900  1.6787
 4969SOL     OW16347   4.358   5.587   5.444 -0.4017  0.1222  0.3764
 4969SOL    HW116348   4.347   5.584   5.539  0.5445  0.7914  0.5212
 4969SOL    HW216349   4.311   5.510   5.412  2.1154 -2.1382  1.6841
 4970SOL     OW16350   2.255   7.003   4.410 -0.0723 -0.4334  0.2636
 4970SOL    HW116351   2.310   7.018   4.333 -0.7565  1.2060  0.0657
 4970SOL    HW216352   2.311   6.952   4.469  0.2396 -2.3382 -1.5323
 4971SOL     OW16353   4.765   3.222  10.720  0.0544 -0.2990  0.2328
 4971SOL    HW116354   4.751   3.219  10.815 -0.5341  0.7403  0.1975
 4971SOL    HW216355   4.681   3.252  10.685  0.4634 -0.0685 -0.5609
 4972SOL     OW16356   7.197   5.553   1.886  0.4210 -0.4496  0.2130
 4972SOL    HW116357   7.225   5.594   1.804  1.3845  0.5203  1.0005
 4972SOL    HW216358   7.221   5.461   1.877  0.7924 -0.2910 -0.4675
 4973SOL     OW16359   0.427   2.578   3.148 -0.1117  0.2458 -0.5240
 4973SOL    HW116360   0.449   2.584   3.055  1.2094  0.9300 -0.1940
 4973SOL    HW216361   0.472   2.652   3.188 -0.9480  0.1610  0.6190
 4974SOL     OW16362   3.600   2.640  10.587 -0.1744 -0.1472  0.3021
 4974SOL    HW116363   3.641   2.569  10.538 -1.1882 -0.3770 -0.2352
 4974SOL    HW216364   3.629   2.720  10.542  1.1609 -0.1696  1.0503
 4975SOL     OW16365   4.087   2.865   6.190  0.3200  0.7603  0.0172
 4975SOL    HW116366   4.115   2.881   6.280  0.6622 -3.2166  0.7801
 4975SOL    HW216367   4.157   2.902   6.136  1.2731  1.1088  1.4475
 4976SOL     OW16368   7.083   7.518   2.614 -0.8521 -0.1361  0.2197
 4976SOL    HW116369   7.080   7.443   2.673  0.2960  0.6731  1.3690
 4976SOL    HW216370   6.995   7.557   2.621 -0.4528  0.5275  2.2448
 4977SOL     OW16371   3.338   6.170   1.179  0.5039  0.2816 -0.0936
 4977SOL    HW116372   3.348   6.079   1.209  1.4818  0.1462 -0.7626
 4977SOL    HW216373   3.324   6.162   1.085 -0.5090  0.7906 -0.0044
 4978SOL     OW16374   6.003   7.909   3.579  0.0953 -0.3287  0.0251
 4978SOL    HW116375   6.030   7.999   3.595  2.0127 -0.9958  0.8030
 4978SOL    HW216376   5.929   7.895   3.638  1.2442  0.0609  1.6146
 4979SOL     OW16377   2.626   0.156   9.452 -0.1764 -0.3004  0.0788
 4979SOL    HW116378   2.691   0.207   9.500  0.2812 -0.3225 -0.4949
 4979SOL    HW216379   2.587   0.219   9.391  0.0499 -0.5130 -0.2962
 4980SOL     OW16380   4.799   4.372   3.269 -0.1525 -0.1695 -0.1462
 4980SOL    HW116381   4.861   4.304   3.297 -2.5822 -1.9473  1.3250
 4980SOL    HW216382   4.763   4.340   3.187  1.0207  1.0302 -1.1813
 4981SOL     OW16383   6.850   7.742   8.548 -0.4093  0.1675  0.1863
 4981SOL    HW116384   6.933   7.772   8.511 -0.2594  0.6809  0.9051
 4981SOL    HW216385   6.785   7.802   8.512 -0.4428 -0.1125 -0.2233
 4982SOL     OW16386   5.981   7.118   5.402  0.2840 -0.2618 -0.0079
 4982SOL    HW116387   5.977   7.154   5.491 -0.6815 -1.4795  0.4696
 4982SOL    HW216388   6.014   7.190   5.349 -1.5615  1.3627  0.8964
 4983SOL     OW16389   4.507   5.245   3.718 -0.3189 -0.8322  0.4232
 4983SOL    HW116390   4.593   5.264   3.757 -0.9821  1.3461  0.9551
 4983SOL    HW216391   4.512   5.282   3.630 -0.9306 -0.0122  0.7172
 4984SOL     OW16392   0.099   0.129  10.522  0.7219 -0.0306  0.1487
 4984SOL    HW116393   0.190   0.100  10.518  0.7240 -0.0205  0.1213
 4984SOL    HW216394   0.077   0.127  10.615  0.5263 -0.7330  0.0941
 4985SOL     OW16395   4.948   5.855   7.421 -0.2703  0.7705 -0.6734
 4985SOL    HW116396   4.962   5.880   7.512  0.2736 -0.8376 -0.2976
 4985SOL    HW216397   4.892   5.925   7.386 -0.3680  1.4900  0.8335
 4986SOL     OW16398   2.564   0.161   2.428  0.2274  1.0964  0.2474
 4986SOL    HW116399   2.493   0.219   2.402  0.3370  0.7007 -1.0149
 4986SOL    HW216400   2.625   0.217   2.476  0.3001  2.0147 -0.8760
 4987SOL     OW16401   2.715   0.883  10.314  0.6815 -0.0485  0.5223
 4987SOL    HW116402   2.675   0.839  10.389  1.1071 -0.2146  0.6554
 4987SOL    HW216403   2.656   0.957  10.295 -1.8375 -2.4213 -1.7335
 4988SOL     OW16404   2.394   5.689   0.052  0.1710  0.1193 -0.4221
 4988SOL    HW116405   2.330   5.756   0.075 -0.3337 -0.2039 -0.8610
 4988SOL    HW216406   2.419   5.710  -0.038  0.5913  0.1645 -0.2988
 4989SOL     OW16407   5.326   6.803   6.818 -0.3165  0.1995  0.5264
 4989SOL    HW116408   5.318   6.895   6.793 -0.7523 -0.1091 -0.5468
 4989SOL    HW216409   5.355   6.805   6.909 -0.6301  1.3989  0.6182
 4990SOL     OW16410   5.471   6.130   6.153  0.2792  0.3371 -0.2370
 4990SOL    HW116411   5.455   6.037   6.169 -0.0407  0.2608 -0.9608
 4990SOL    HW216412   5.393   6.174   6.187  1.3389  0.5711  2.1020
 4991SOL     OW16413   0.564   6.501   1.926  0.3309 -0.5356  0.3253
 4991SOL    HW116414   0.490   6.443   1.916 -0.6733  0.6138  0.7981
 4991SOL    HW216415   0.607   6.501   1.841  0.0199 -1.4993  0.1564
 4992SOL     OW16416   6.725   1.110   5.162 -0.0626  0.1597 -0.1118
 4992SOL    HW116417   6.808   1.154   5.181 -0.0565  0.2423 -0.3268
 4992SOL    HW216418   6.732   1.085   5.070  0.3430 -1.1861  0.2577
 4993SOL     OW16419   5.180   6.443   2.562  0.5269  0.4325 -0.2594
 4993SOL    HW116420   5.204   6.513   2.502  0.7078  1.6682  1.1813
 4993SOL    HW216421   5.261   6.395   2.577  0.4589  0.0636 -1.0579
 4994SOL     OW16422   4.069   2.185   4.811  0.3458 -0.4958 -0.3420
 4994SOL    HW116423   4.036   2.213   4.897  0.8253 -0.6457 -0.1031
 4994SOL    HW216424   4.013   2.231   4.748 -0.4288 -0.8893  0.0466
 4995SOL     OW16425   6.387   0.687  11.734 -0.0274  0.0698 -0.4019
 4995SOL    HW116426   6.459   0.631  11.704  0.3037  0.2540  0.0480
 4995SOL    HW216427   6.401   0.695  11.828 -1.0787 -0.5217 -0.1816
 4996SOL     OW16428   4.691   1.379   2.011  0.0114 -0.3189  0.5665
 4996SOL    HW116429   4.646   1.364   2.094 -1.3582  0.6554  0.0237
 4996SOL    HW216430   4.640   1.330   1.946  0.4020 -0.1264  0.1028
 4997SOL     OW16431   6.426   0.339  10.132 -0.6568  0.0311  0.2694
 4997SOL    HW116432   6.382   0.384  10.060  0.2830  1.0324  0.2837
 4997SOL    HW216433   6.451   0.254  10.097 -2.5413 -0.5493  0.2558
 4998SOL     OW16434   4.269   0.335  11.540  0.1731  0.1870 -0.6617
 4998SOL    HW116435   4.240   0.409  11.487 -1.2251  0.3053  0.2187
 4998SOL    HW216436   4.337   0.370  11.596  0.6624  0.4007 -1.3785
 4999SOL     OW16437   1.047   4.672   7.239 -0.0482 -0.3801 -0.4346
 4999SOL    HW116438   1.040   4.655   7.145 -0.3690 -0.6286 -0.3666
 4999SOL    HW216439   0.958   4.663   7.272  0.3421 -2.2360  0.2099
 5000SOL     OW16440   5.583   2.404   7.448 -0.5105 -0.2582 -0.1042
 5000SOL    HW116441   5.572   2.438   7.537  0.5787  0.6798 -0.3052
 5000SOL    HW216442   5.628   2.320   7.459  3.4379  1.6559  0.1392
 5001SOL     OW16443   5.774   6.241   9.540  0.1838 -0.6571  0.3008
 5001SOL    HW116444   5.704   6.292   9.500  0.4335 -0.7127 -0.2106
 5001SOL    HW216445   5.769   6.156   9.498  1.8944 -0.0265 -1.3010
 5002SOL     OW16446   6.016   6.201   6.859 -0.1987  0.0092  0.5197
 5002SOL    HW116447   5.947   6.158   6.909  0.8629 -1.3270  0.9057
 5002SOL    HW216448   6.093   6.145   6.871  0.3905  0.2329 -1.7327
 5003SOL     OW16449   5.431   4.200   9.926 -0.6836  0.0338  0.3039
 5003SOL    HW116450   5.496   4.134   9.903 -1.5945 -1.1852  1.0790
 5003SOL    HW216451   5.461   4.236  10.010 -0.7824 -0.2290  0.4538
 5004SOL     OW16452   6.218   4.488   5.579  0.0048  0.0759  0.2808
 5004SOL    HW116453   6.229   4.415   5.640  2.6323  0.3456  0.2497
 5004SOL    HW216454   6.138   4.466   5.530 -0.2562 -1.8741  1.4479
 5005SOL     OW16455   1.140   5.657   1.178 -0.3218  0.5380 -0.3378
 5005SOL    HW116456   1.159   5.650   1.085 -1.4301  1.3097 -0.6364
 5005SOL    HW216457   1.105   5.745   1.190  1.5189  1.1321  1.1475
 5006SOL     OW16458   1.227   2.163   7.875  0.2290 -0.7678 -0.4135
 5006SOL    HW116459   1.222   2.234   7.811  1.2505  0.5441  0.9112
 5006SOL    HW216460   1.315   2.168   7.911 -0.2123 -1.6628  0.8830
 5007SOL     OW16461   6.124   7.034   0.786  0.4044  0.0360  0.2099
 5007SOL    HW116462   6.201   6.977   0.792 -0.5069 -1.2787 -0.1416
 5007SOL    HW216463   6.159   7.118   0.756  1.7001 -0.5214  0.0743
 5008SOL     OW16464   4.042   2.502   1.935  0.4776 -0.7183  0.1759
 5008SOL    HW116465   4.117   2.481   1.879  1.1322  2.7672 -0.4368
 5008SOL    HW216466   3.965   2.488   1.880  1.0124  0.8156 -1.0027
 5009SOL     OW16467   7.799   0.593  12.040 -0.3758 -0.5128 -0.1234
 5009SOL    HW116468   7.761   0.516  11.997  0.6409 -1.0427 -0.0958
 5009SOL    HW216469   7.726   0.631  12.089 -0.8347 -1.6269  0.0941
 5010SOL     OW16470   3.743   3.756   2.782  0.4737  0.1062 -0.3872
 5010SOL    HW116471   3.800   3.811   2.729  2.1931  0.3705  1.6168
 5010SOL    HW216472   3.800   3.688   2.817  0.1368  1.4432  3.2232
 5011SOL     OW16473   1.490   0.869   1.572  0.2544 -0.3241  0.2470
 5011SOL    HW116474   1.394   0.879   1.566  0.3795  0.8540 -0.1850
 5011SOL    HW216475   1.517   0.940   1.631  1.0042  0.3569 -0.8784
 5012SOL     OW16476   1.709   4.257  10.494 -0.5510 -0.3417 -0.1978
 5012SOL    HW116477   1.722   4.343  10.455  0.3009  0.7716  2.3495
 5012SOL    HW216478   1.703   4.273  10.588 -1.8482 -2.9325  0.2607
 5013SOL     OW16479   2.398   6.083  11.316 -0.5130  0.0824 -0.1515
 5013SOL    HW116480   2.466   6.086  11.248 -0.1115  1.0542  0.2693
 5013SOL    HW216481   2.319   6.056  11.270 -0.1266  0.2174 -0.9092
 5014SOL     OW16482   7.028   5.422   1.590 -0.5438 -0.1747  0.1836
 5014SOL    HW116483   7.093   5.476   1.545 -0.6782  0.6791  0.9669
 5014SOL    HW216484   7.075   5.342   1.612  0.1942  0.3371  0.5397
 5015SOL     OW16485   4.618   4.480   4.672  0.1658 -0.1225 -0.0974
 5015SOL    HW116486   4.594   4.570   4.653  2.9879  0.7098 -0.2120
 5015SOL    HW216487   4.574   4.428   4.605 -0.4231  1.3097 -0.8656
 5016SOL     OW16488   0.313   4.849  11.897 -0.1742 -0.5798  0.5289
 5016SOL    HW116489   0.332   4.769  11.946 -2.2222 -0.6958  1.2395
 5016SOL    HW216490   0.276   4.818  11.815  0.7126 -0.3456  0.0246
 5017SOL     OW16491   0.971   1.207   2.940 -0.1186  0.6474  0.4696
 5017SOL    HW116492   1.035   1.135   2.944 -1.3516 -0.6524 -1.4576
 5017SOL    HW216493   0.999   1.267   3.009  1.8706 -0.9293  1.1579
 5018SOL     OW16494   2.100   0.538  12.004  0.4570  0.0397 -0.4638
 5018SOL    HW116495   2.019   0.493  12.028  0.3157 -0.3654 -1.6088
 5018SOL    HW216496   2.165   0.468  11.997  1.0112  0.4040  0.7923
 5019SOL     OW16497   7.397   4.799   1.314  0.1630 -0.1771  0.2496
 5019SOL    HW116498   7.389   4.707   1.290  2.5238 -0.6505  0.9419
 5019SOL    HW216499   7.315   4.820   1.359 -1.6253 -1.0637 -2.3887
 5020SOL     OW16500   7.647   3.964   5.048 -0.0305 -0.6805 -0.3164
 5020SOL    HW116501   7.583   4.032   5.026 -0.4172  0.0214  2.5122
 5020SOL    HW216502   7.704   3.959   4.972 -1.8144  0.6339 -1.8358
 5021SOL     OW16503   5.516   7.077  10.551  0.3561 -0.0382 -0.6194
 5021SOL    HW116504   5.500   7.168  10.526  0.8671  0.8287  1.8937
 5021SOL    HW216505   5.566   7.040  10.478  0.7358  1.8924 -1.3807
 5022SOL     OW16506   4.287   6.643   9.190 -0.0833  0.6561 -0.6426
 5022SOL    HW116507   4.202   6.669   9.226 -0.0903 -1.0431  0.7081
 5022SOL    HW216508   4.351   6.679   9.251 -0.0980 -2.3568  1.3832
 5023SOL     OW16509   7.698   5.162   8.439  0.1904  0.4066 -0.0970
 5023SOL    HW116510   7.790   5.143   8.420  0.1865 -0.2180  0.4798
 5023SOL    HW216511   7.650   5.125   8.365  0.5179  2.4929 -1.4430
 5024SOL     OW16512   4.280   3.085  10.198 -0.1800  0.2460 -0.7882
 5024SOL    HW116513   4.299   3.031  10.275 -1.1608 -0.5950 -1.1213
 5024SOL    HW216514   4.208   3.142  10.226 -1.7091 -1.2342 -1.5710
 5025SOL     OW16515   4.058   7.496   9.268 -0.1726 -0.1497 -0.3434
 5025SOL    HW116516   4.134   7.525   9.218  0.7508 -0.3438  0.8979
 5025SOL    HW216517   4.085   7.504   9.359 -0.9779 -1.9601  0.1019
 5026SOL     OW16518   0.411   2.510   7.122 -0.0120  0.3466  0.0677
 5026SOL    HW116519   0.395   2.464   7.204  0.3345 -0.5038 -0.3285
 5026SOL    HW216520   0.326   2.548   7.099 -0.6295 -1.1154 -0.1921
 5027SOL     OW16521   6.230   0.663   6.256  0.0951 -0.5627 -0.5961
 5027SOL    HW116522   6.152   0.614   6.229 -0.2871  0.2263 -0.9529
 5027SOL    HW216523   6.248   0.721   6.183 -1.2576  1.9933  0.9623
 5028SOL     OW16524   1.287   0.761   3.838  0.5425  0.2862  0.0838
 5028SOL    HW116525   1.268   0.721   3.754 -0.3573  1.1768 -0.1694
 5028SOL    HW216526   1.380   0.746   3.853  0.6791  0.0037 -1.0094
 5029SOL     OW16527   0.480   7.861   0.102  0.0662  0.1838  0.0111
 5029SOL    HW116528   0.412   7.883   0.038  0.0410  0.9863  0.3119
 5029SOL    HW216529   0.514   7.945   0.132  0.7225 -0.1995  0.3755
 5030SOL     OW16530   6.068   0.790   2.448 -0.2905  0.0899  0.2054
 5030SOL    HW116531   5.978   0.798   2.416 -0.4661 -1.2957  0.2733
 5030SOL    HW216532   6.121   0.837   2.383 -0.9985  0.4137 -0.1533
 5031SOL     OW16533   4.600   5.260   2.136  0.4260  0.2974  0.2726
 5031SOL    HW116534   4.609   5.193   2.068  1.3625  0.9784 -0.3029
 5031SOL    HW216535   4.530   5.317   2.105  0.3812  0.2151  0.2213
 5032SOL     OW16536   3.582   2.769   8.273  0.0628 -0.1517  0.3928
 5032SOL    HW116537   3.546   2.834   8.212 -1.7879 -0.5177  1.0349
 5032SOL    HW216538   3.509   2.748   8.331  1.2434 -1.2404  1.5364
 5033SOL     OW16539   6.179   0.291   1.680  0.1768 -0.0478  0.5167
 5033SOL    HW116540   6.101   0.242   1.653  1.4629 -0.8547 -1.9943
 5033SOL    HW216541   6.185   0.363   1.618  1.2747  0.1949  0.8825
 5034SOL     OW16542   5.522   6.292   9.904  0.2919  0.2898 -0.0578
 5034SOL    HW116543   5.506   6.224   9.839  1.8612 -1.8237  1.6501
 5034SOL    HW216544   5.566   6.362   9.855 -2.2933  0.6786 -2.0712
 5035SOL     OW16545   0.475   7.922   6.242  0.2843 -0.1057  0.0884
 5035SOL    HW116546   0.491   7.827   6.238 -0.2916 -0.2041  0.1250
 5035SOL    HW216547   0.528   7.957   6.170 -0.6927 -0.6205 -0.9103
 5036SOL     OW16548   5.514   3.964   4.910  0.4193 -0.4444  0.1650
 5036SOL    HW116549   5.561   3.997   4.986  0.5977 -2.0931  0.8073
 5036SOL    HW216550   5.422   3.973   4.933  0.4057  1.2056 -0.4024
 5037SOL     OW16551   1.112   5.188   2.889 -0.1907  0.2955 -0.3309
 5037SOL    HW116552   1.046   5.162   2.953 -0.3203  1.7888  0.2020
 5037SOL    HW216553   1.121   5.113   2.831 -2.5168  0.1034 -0.5474
 5038SOL     OW16554   7.302   2.571   0.615  0.1984 -0.7234  0.1368
 5038SOL    HW116555   7.226   2.599   0.666  0.2167  0.6725 -0.5508
 5038SOL    HW216556   7.378   2.594   0.668  0.2260  0.9361 -0.5696
 5039SOL     OW16557   2.269   7.845  11.473 -0.4400 -0.5209 -0.6338
 5039SOL    HW116558   2.267   7.795  11.391 -1.9608 -0.2706 -0.7746
 5039SOL    HW216559   2.225   7.789  11.537  2.2069 -1.4612  0.5178
 5040SOL     OW16560   3.065   7.026   6.219 -0.3669 -0.3821  0.3004
 5040SOL    HW116561   2.993   6.975   6.182 -1.4092  0.8725  0.5199
 5040SOL    HW216562   3.125   7.039   6.146 -0.5854 -1.0327 -0.0095
 5041SOL     OW16563   5.933   6.715  10.245  0.1107 -0.2754 -0.1505
 5041SOL    HW116564   5.929   6.702  10.340  2.1475 -1.6748 -0.1871
 5041SOL    HW216565   5.990   6.791  10.234 -1.8577  1.2603 -0.2600
 5042SOL     OW16566   5.810   5.514   9.889 -0.0246  0.5078  0.8468
 5042SOL    HW116567   5.815   5.457   9.966  2.6618 -0.7411 -0.1249
 5042SOL    HW216568   5.876   5.582   9.906  1.1563 -0.2138 -0.6097
 5043SOL     OW16569   0.603   2.771   7.724 -0.2354 -0.4745 -0.2912
 5043SOL    HW116570   0.514   2.772   7.759 -0.1754 -1.8799 -0.0104
 5043SOL    HW216571   0.599   2.708   7.651 -0.0581  1.4294 -2.0341
 5044SOL     OW16572   3.773   1.959   8.439  0.2231  0.4067  0.0196
 5044SOL    HW116573   3.835   2.012   8.489  0.8116  0.2769 -0.5626
 5044SOL    HW216574   3.690   2.006   8.446  0.3353  0.4782  0.9751
 5045SOL     OW16575   5.230   1.700   6.912 -0.2338  0.1124  0.0833
 5045SOL    HW116576   5.289   1.765   6.952  0.4897 -0.6732  0.3130
 5045SOL    HW216577   5.150   1.749   6.896 -0.0222  0.8468  1.1064
 5046SOL     OW16578   5.582   6.086  11.937 -0.0375  0.6550 -0.2517
 5046SOL    HW116579   5.644   6.021  11.968 -0.6364  0.0843 -0.2403
 5046SOL    HW216580   5.610   6.168  11.978  0.1109  0.2135  0.5326
 5047SOL     OW16581   3.706   3.530   1.500  0.9738 -0.3674  0.0293
 5047SOL    HW116582   3.789   3.484   1.514 -0.6893 -3.5796  0.1150
 5047SOL    HW216583   3.676   3.500   1.415  0.9600  2.6833 -1.1557
 5048SOL     OW16584   1.861   4.694  11.244  0.3617 -0.3707 -0.1717
 5048SOL    HW116585   1.913   4.659  11.316 -1.1767  0.3651  1.3523
 5048SOL    HW216586   1.890   4.784  11.234 -1.4600  0.4839  1.6097
 5049SOL     OW16587   1.526   4.612   6.877 -0.2750 -0.2310  0.5493
 5049SOL    HW116588   1.599   4.577   6.929 -2.1469 -1.5741  2.4594
 5049SOL    HW216589   1.517   4.702   6.908  1.2717  0.3691 -0.5977
 5050SOL     OW16590   0.780   5.406  10.524 -0.9493  0.0002 -0.4113
 5050SOL    HW116591   0.687   5.423  10.515 -1.5378 -2.2126  0.7124
 5050SOL    HW216592   0.822   5.491  10.513 -3.1597  1.1997 -0.0075
 5051SOL     OW16593   5.954   3.226   1.587  0.7539  0.2220 -0.7287
 5051SOL    HW116594   5.959   3.285   1.512  1.3156  0.2167 -0.7053
 5051SOL    HW216595   6.037   3.178   1.584  0.8240  0.2946 -0.0464
 5052SOL     OW16596   7.091   6.091  10.554 -0.4263  0.0665  0.2285
 5052SOL    HW116597   7.056   6.003  10.569 -1.5049  0.5094  0.3928
 5052SOL    HW216598   7.105   6.127  10.642 -2.0944  0.8549  0.2080
 5053SOL     OW16599   1.617   5.490   0.990 -0.1061  0.6644  0.1612
 5053SOL    HW116600   1.533   5.444   0.994  0.6415 -0.7045  0.4136
 5053SOL    HW216601   1.620   5.526   0.901 -0.1909 -0.7885 -0.4509
 5054SOL     OW16602   0.091   3.905   2.407 -0.0024  0.2273 -0.1095
 5054SOL    HW116603   0.126   3.836   2.464  1.9477  0.4257 -0.9997
 5054SOL    HW216604   0.012   3.866   2.368  0.4804 -1.1149  0.2054
 5055SOL     OW16605   1.566   6.016   1.690 -0.1950  0.0203  0.2015
 5055SOL    HW116606   1.627   6.030   1.618 -0.4155  1.2778  0.2399
 5055SOL    HW216607   1.580   5.925   1.717  0.6979 -0.1058 -0.6675
 5056SOL     OW16608   6.893   7.815   4.402  0.4309  0.0179 -0.0653
 5056SOL    HW116609   6.898   7.720   4.389  0.2636  0.2001 -1.5542
 5056SOL    HW216610   6.956   7.832   4.473  0.4007 -1.2029  0.2768
 5057SOL     OW16611   4.790   0.436   5.130  0.1920 -0.0652  0.0540
 5057SOL    HW116612   4.813   0.349   5.096 -0.8419 -0.3774  0.1106
 5057SOL    HW216613   4.735   0.474   5.061  0.1053  0.2790  0.3154
 5058SOL     OW16614   4.159   5.730   4.469 -0.6527 -0.2690 -0.5127
 5058SOL    HW116615   4.091   5.772   4.522 -1.5006  0.6189 -2.2278
 5058SOL    HW216616   4.203   5.671   4.530 -1.2130  1.0817  1.3218
 5059SOL     OW16617   1.788   1.518   6.242  0.1544 -0.3251  0.4260
 5059SOL    HW116618   1.877   1.536   6.274  0.0960 -1.1013  1.0675
 5059SOL    HW216619   1.734   1.586   6.284  0.3979 -0.0191  0.2530
 5060SOL     OW16620   5.161   7.070   4.494  0.1009 -0.2302  0.0777
 5060SOL    HW116621   5.208   7.142   4.454 -3.0539  1.1722 -1.4884
 5060SOL    HW216622   5.166   7.087   4.588  1.5691  0.5280 -0.1175
 5061SOL     OW16623   1.680   3.220   5.895 -0.5693 -0.4475  0.3222
 5061SOL    HW116624   1.692   3.146   5.836  0.9396  0.5652 -0.7281
 5061SOL    HW216625   1.655   3.292   5.838  1.1974  0.6279  0.8250
 5062SOL     OW16626   0.350   2.202   0.055 -0.3065 -0.2069  0.1548
 5062SOL    HW116627   0.420   2.267   0.056 -0.3434 -0.1532  1.6054
 5062SOL    HW216628   0.297   2.225  -0.021  0.5891  0.4573 -0.2933
 5063SOL     OW16629   4.550   5.254   4.595 -0.6916 -0.3609  0.8486
 5063SOL    HW116630   4.624   5.314   4.599 -0.5010 -0.6038  0.9239
 5063SOL    HW216631   4.535   5.229   4.687 -0.2619 -1.0570  0.7355
 5064SOL     OW16632   4.699   7.075   1.847  0.1774 -0.0478 -0.4083
 5064SOL    HW116633   4.632   7.013   1.818  0.1969  0.3211 -1.2811
 5064SOL    HW216634   4.761   7.078   1.774  0.3988  0.6816 -0.1980
 5065SOL     OW16635   6.520   1.158   4.694  0.3026  0.0523  0.3523
 5065SOL    HW116636   6.574   1.235   4.714  1.8664 -1.5412  2.7259
 5065SOL    HW216637   6.560   1.087   4.743 -1.7824 -2.0803 -0.8334
 5066SOL     OW16638   2.174   6.118  12.052  0.0225 -0.9438 -0.2742
 5066SOL    HW116639   2.143   6.068  12.127 -0.1640 -1.5203 -0.7314
 5066SOL    HW216640   2.193   6.053  11.985  0.9647 -0.4990 -0.4603
 5067SOL     OW16641   2.167   3.726   4.434  0.1465 -0.2474 -0.2834
 5067SOL    HW116642   2.147   3.633   4.427  0.2527 -0.1648 -2.6839
 5067SOL    HW216643   2.249   3.737   4.385 -0.5303  1.2779 -1.1629
 5068SOL     OW16644   7.655   0.416   5.661  0.1072  0.0190  0.1086
 5068SOL    HW116645   7.638   0.488   5.601 -0.1009  0.3916  0.6016
 5068SOL    HW216646   7.734   0.374   5.627  0.5075  0.7767  0.0785
 5069SOL     OW16647   2.018   6.540   8.263  0.3867  0.7436  0.9229
 5069SOL    HW116648   1.933   6.530   8.219  0.0023  1.1716  1.5577
 5069SOL    HW216649   2.068   6.463   8.236 -0.3784  0.2287  0.9346
 5070SOL     OW16650   0.920   7.159   4.079  0.4958  0.4417 -0.3306
 5070SOL    HW116651   0.905   7.072   4.116 -0.9987  0.3214 -1.1273
 5070SOL    HW216652   0.851   7.213   4.118  0.3177  0.8405 -1.1856
 5071SOL     OW16653   3.041   5.253   3.209 -0.2009 -0.1669  0.1341
 5071SOL    HW116654   3.100   5.273   3.136 -0.3242  0.7217  0.2718
 5071SOL    HW216655   3.093   5.269   3.288 -0.1643 -0.8371  0.2567
 5072SOL     OW16656   5.415   7.379   8.837  0.0008  0.5698 -0.2283
 5072SOL    HW116657   5.342   7.437   8.860 -0.6602 -0.0454 -0.7376
 5072SOL    HW216658   5.418   7.315   8.908 -1.1181 -0.4713 -1.0900
 5073SOL     OW16659   3.243   7.363  12.027 -0.5170  0.3311  0.3205
 5073SOL    HW116660   3.232   7.457  12.013 -0.5262  0.2827 -0.0012
 5073SOL    HW216661   3.260   7.327  11.940 -1.3919 -0.0923  0.3116
 5074SOL     OW16662   4.290   5.919  11.683  0.7251 -0.3522 -0.3696
 5074SOL    HW116663   4.363   5.868  11.716  0.4891  0.0059  0.7514
 5074SOL    HW216664   4.307   5.928  11.589  0.5940 -2.7509 -0.6876
 5075SOL     OW16665   6.459   4.950   6.288  0.1581  0.2768 -0.1596
 5075SOL    HW116666   6.482   4.893   6.362 -1.6748 -1.5693 -0.9069
 5075SOL    HW216667   6.532   4.940   6.227  0.2409 -0.6618  0.0699
 5076SOL     OW16668   2.499   2.481   2.021  0.0609 -0.1995 -0.4666
 5076SOL    HW116669   2.496   2.549   2.089 -0.1919 -1.3635  0.7285
 5076SOL    HW216670   2.449   2.518   1.948 -1.2673  0.3615  0.6836
 5077SOL     OW16671   7.087   3.685   4.911 -0.3757 -0.3168  0.3580
 5077SOL    HW116672   7.090   3.602   4.863  2.3960 -0.0170 -0.1233
 5077SOL    HW216673   7.178   3.704   4.932 -1.1523  1.4456  2.5602
 5078SOL     OW16674   5.058   5.855  12.167 -0.4882 -0.0162 -0.4206
 5078SOL    HW116675   4.984   5.913  12.187 -1.1454 -0.1056 -2.3575
 5078SOL    HW216676   5.125   5.914  12.131  0.7343  0.1735  1.9901
 5079SOL     OW16677   6.903   6.533   6.187 -0.8403  0.3305  0.3053
 5079SOL    HW116678   6.955   6.598   6.140 -2.0333  0.9020 -0.2687
 5079SOL    HW216679   6.849   6.492   6.119 -2.6963  1.2494  1.1318
 5080SOL     OW16680   2.573   3.902   9.089  0.6525  0.3842  0.5812
 5080SOL    HW116681   2.615   3.853   9.159 -1.2127 -0.8971  0.8915
 5080SOL    HW216682   2.570   3.992   9.122 -0.2262 -0.1939  2.2082
 5081SOL     OW16683   4.551   0.447   6.964  0.2419  0.2686  0.4706
 5081SOL    HW116684   4.578   0.460   7.055 -0.5778  0.8038  0.6512
 5081SOL    HW216685   4.630   0.465   6.913  0.5739  0.4929  1.0464
 5082SOL     OW16686   0.049   3.513  11.316  0.1760  0.2933 -0.1578
 5082SOL    HW116687   0.122   3.480  11.367  1.2633 -0.4037 -2.0917
 5082SOL    HW216688   0.056   3.609  11.323  0.9370  0.2225  0.0882
 5083SOL     OW16689   0.628   5.460  11.237 -0.0983 -0.0558 -0.2730
 5083SOL    HW116690   0.683   5.533  11.208 -0.9062 -0.3511 -2.8382
 5083SOL    HW216691   0.543   5.500  11.255 -0.7519 -0.3855 -2.3908
 5084SOL     OW16692   3.492   3.823  12.413 -0.3385  0.0351 -0.0766
 5084SOL    HW116693   3.454   3.736  12.414  0.6739 -0.4194 -0.0190
 5084SOL    HW216694   3.583   3.810  12.387  0.7036  0.6911  2.7976
 5085SOL     OW16695   7.703   2.622   9.230 -0.1276 -0.0419  0.3644
 5085SOL    HW116696   7.763   2.557   9.268  0.9566  0.8634  0.2691
 5085SOL    HW216697   7.617   2.599   9.266  0.0006 -2.1987 -0.5457
 5086SOL     OW16698   1.854   6.050   2.491 -0.3688 -0.0138 -0.0727
 5086SOL    HW116699   1.941   6.028   2.457 -0.8152  1.4231 -2.3478
 5086SOL    HW216700   1.869   6.073   2.582  1.8217  1.1512 -0.6582
 5087SOL     OW16701   6.813   5.224   4.584 -0.2218  0.0752 -0.5287
 5087SOL    HW116702   6.838   5.225   4.676 -0.0879  1.8350 -0.5600
 5087SOL    HW216703   6.770   5.139   4.572  1.6427 -1.0979  0.6099
 5088SOL     OW16704   3.612   2.584  10.196  0.4159  0.0405 -0.0227
 5088SOL    HW116705   3.538   2.633  10.232 -0.3749  0.9540 -2.6181
 5088SOL    HW216706   3.661   2.555  10.272  0.1821  3.7296  1.7420
 5089SOL     OW16707   2.703   3.273   9.816 -0.4529  0.0266  0.7298
 5089SOL    HW116708   2.640   3.207   9.788  0.2180 -0.5003  0.4322
 5089SOL    HW216709   2.650   3.339   9.861 -1.3690  0.1949 -0.5318
 5090SOL     OW16710   0.635   2.703   8.972  0.7566 -0.1272 -0.5568
 5090SOL    HW116711   0.715   2.651   8.976 -0.3068 -1.8708 -0.8139
 5090SOL    HW216712   0.606   2.697   8.881  1.4816  2.3815 -1.0132
 5091SOL     OW16713   2.624   1.929   3.654  1.3858  0.2231  0.1777
 5091SOL    HW116714   2.638   1.844   3.614  0.4655  0.1618 -0.0340
 5091SOL    HW216715   2.713   1.963   3.670  1.7619 -0.2438 -0.8391
 5092SOL     OW16716   2.365   3.353  11.640 -0.1981 -0.4742 -0.2391
 5092SOL    HW116717   2.330   3.411  11.573  0.1294  2.2810  1.8031
 5092SOL    HW216718   2.450   3.391  11.664 -0.1731 -1.5090  1.5301
 5093SOL     OW16719   3.283   4.806   8.256 -0.0105 -0.0819 -0.1236
 5093SOL    HW116720   3.287   4.883   8.199 -0.5592 -0.3039 -0.4696
 5093SOL    HW216721   3.191   4.796   8.277  0.0413 -0.7009 -0.1566
 5094SOL     OW16722   4.409   0.495   4.702 -0.2244  0.2440 -0.4624
 5094SOL    HW116723   4.433   0.587   4.704 -0.0559  0.1973 -0.3731
 5094SOL    HW216724   4.431   0.462   4.789 -1.3794  0.4011 -0.0894
 5095SOL     OW16725   5.885   4.753   5.374  0.1621 -0.1840  0.1926
 5095SOL    HW116726   5.925   4.718   5.454  0.2059 -1.1877 -0.2623
 5095SOL    HW216727   5.809   4.698   5.358  0.0750  0.0957 -0.3827
 5096SOL     OW16728   0.687   7.728   4.484  0.7084 -0.8213 -0.1667
 5096SOL    HW116729   0.679   7.809   4.535  2.2040  0.2161 -1.4726
 5096SOL    HW216730   0.609   7.729   4.427  1.3223  0.3832 -1.0360
 5097SOL     OW16731   0.251   3.063   3.537  0.2729  0.5715  0.4603
 5097SOL    HW116732   0.309   2.995   3.571  0.1119  1.2473  2.1440
 5097SOL    HW216733   0.184   3.073   3.604 -1.0735  0.7301 -0.8586
 5098SOL     OW16734   6.505   0.396   8.059 -0.1688  0.5281  0.1727
 5098SOL    HW116735   6.567   0.414   8.129  0.1853  2.5253 -0.6029
 5098SOL    HW216736   6.504   0.476   8.006 -1.1526 -0.5565 -1.5479
 5099SOL     OW16737   3.895   4.837   6.525 -0.4219  0.0574  0.1185
 5099SOL    HW116738   3.941   4.879   6.597 -0.0286  0.0292 -0.1089
 5099SOL    HW216739   3.815   4.803   6.563  0.0395 -0.4390  0.6679
 5100SOL     OW16740   5.276   7.261  12.376  0.0581 -0.1898 -0.3868
 5100SOL    HW116741   5.245   7.231  12.290 -2.2577 -1.6096  0.8373
 5100SOL    HW216742   5.218   7.217  12.439  1.5007  1.0075  1.9102
 5101SOL     OW16743   5.921   5.127   9.440  0.0327  0.6246 -0.2724
 5101SOL    HW116744   5.842   5.142   9.388 -0.1741  1.4613  0.2633
 5101SOL    HW216745   5.892   5.140   9.530  0.9662  1.8626 -0.1238
 5102SOL     OW16746   6.352   1.085   9.145 -0.4164  0.1785 -0.4690
 5102SOL    HW116747   6.349   1.109   9.052 -1.5864 -1.9479 -1.0416
 5102SOL    HW216748   6.422   1.021   9.151 -0.0903  0.5882  0.2211
 5103SOL     OW16749   5.970   5.021   2.064  0.2114  0.2801  0.1854
 5103SOL    HW116750   5.967   5.004   1.970  0.8834 -1.5341  0.4372
 5103SOL    HW216751   5.943   5.112   2.074 -3.6911 -0.5314 -1.4210
 5104SOL     OW16752   1.039   3.512   6.118 -0.6444 -0.4225 -0.1662
 5104SOL    HW116753   1.042   3.437   6.058 -1.5911  0.2847 -1.1338
 5104SOL    HW216754   0.949   3.512   6.152 -0.6906  0.3292 -0.2648
 5105SOL     OW16755   3.660   7.160   1.097 -0.1832 -0.5511 -0.2357
 5105SOL    HW116756   3.668   7.181   1.004  1.5977 -0.0475 -0.0048
 5105SOL    HW216757   3.748   7.133   1.123 -0.8035 -1.3429  1.1598
 5106SOL     OW16758   3.859   4.125  10.567 -0.0623  0.3259  0.0073
 5106SOL    HW116759   3.911   4.166  10.498  0.2611  0.8985  0.5700
 5106SOL    HW216760   3.769   4.155  10.550 -0.6551 -2.3448 -2.2083
 5107SOL     OW16761   4.241   2.274   8.463 -0.0060  0.1344  0.1148
 5107SOL    HW116762   4.193   2.203   8.421  1.7711  1.4020 -4.7343
 5107SOL    HW216763   4.308   2.230   8.515 -1.5622 -1.6275  0.7382
 5108SOL     OW16764   6.388   2.314   3.958  0.0992  0.1888  0.4704
 5108SOL    HW116765   6.471   2.294   3.915  0.5583  0.2346  1.3250
 5108SOL    HW216766   6.410   2.321   4.051 -0.5571  1.7761  0.5332
 5109SOL     OW16767   7.012   4.382   8.391  0.3941  0.1984 -0.7675
 5109SOL    HW116768   6.976   4.332   8.317  1.2046 -0.7406 -0.5574
 5109SOL    HW216769   6.985   4.472   8.375 -0.9293 -0.2694 -1.2819
 5110SOL     OW16770   2.226   4.966   1.057 -0.0078  0.0568  0.4878
 5110SOL    HW116771   2.242   4.986   1.149  0.0237 -0.4483  0.5974
 5110SOL    HW216772   2.148   5.017   1.035  0.0032  0.2055  0.7862
 5111SOL     OW16773   7.665   0.865   7.412  0.4248 -0.2323 -0.0355
 5111SOL    HW116774   7.752   0.826   7.420  0.2641 -0.6671 -0.3378
 5111SOL    HW216775   7.607   0.803   7.457  0.1964 -0.2261 -0.3174
 5112SOL     OW16776   1.908   2.476   0.927  0.0293  0.2793  0.0619
 5112SOL    HW116777   1.906   2.558   0.877  0.3832 -0.4282 -1.1279
 5112SOL    HW216778   1.999   2.449   0.927 -0.4295 -1.6113 -2.1026
 5113SOL     OW16779   6.067   1.093   9.859  0.2963 -0.0197 -0.3931
 5113SOL    HW116780   6.081   1.186   9.842 -1.0029 -0.1253 -2.3783
 5113SOL    HW216781   6.104   1.048   9.783  1.1574 -1.1729  0.6664
 5114SOL     OW16782   3.394   3.083   2.690  0.1118  0.0050  0.5888
 5114SOL    HW116783   3.372   3.016   2.626 -1.1938  0.9411 -0.0062
 5114SOL    HW216784   3.355   3.052   2.772 -1.2386  0.3988  0.1256
 5115SOL     OW16785   1.214   7.307  12.117  0.3210  0.2892 -0.0668
 5115SOL    HW116786   1.136   7.265  12.152 -0.3055  0.7386 -0.8850
 5115SOL    HW216787   1.247   7.359  12.190 -0.4871  0.5645  0.1198
 5116SOL     OW16788   4.549   1.505   0.900 -0.6788  0.4665 -0.6386
 5116SOL    HW116789   4.499   1.425   0.911  2.8436 -2.4558 -3.3145
 5116SOL    HW216790   4.536   1.529   0.809  1.5588  0.3514 -1.0551
 5117SOL     OW16791   0.315   1.839   6.749 -0.3300 -0.0233 -0.1301
 5117SOL    HW116792   0.309   1.931   6.725 -1.3493 -0.1796 -0.5385
 5117SOL    HW216793   0.373   1.801   6.683 -1.7764 -0.1145 -1.4108
 5118SOL     OW16794   0.861   1.834   9.697  0.1236 -0.3127  0.3647
 5118SOL    HW116795   0.790   1.777   9.728 -0.8341 -1.0660 -2.8673
 5118SOL    HW216796   0.939   1.801   9.741 -0.8818 -2.1927  0.8360
 5119SOL     OW16797   5.344   2.356  11.286 -0.3387  0.1655 -0.3193
 5119SOL    HW116798   5.431   2.379  11.319  0.1464  0.8270 -1.9305
 5119SOL    HW216799   5.283   2.397  11.348  0.5133  0.7831  0.1351
 5120SOL     OW16800   1.905   1.551   0.417  0.0491  0.5531  0.5281
 5120SOL    HW116801   1.961   1.627   0.433  1.1250 -0.6503  3.2420
 5120SOL    HW216802   1.828   1.565   0.472 -0.3396  0.2816  0.0566
 5121SOL     OW16803   3.796   3.878   6.829  0.0692 -0.1365 -0.4876
 5121SOL    HW116804   3.802   3.878   6.924 -1.7446  0.3292 -0.3379
 5121SOL    HW216805   3.840   3.959   6.802 -1.9415  1.2493  0.2027
 5122SOL     OW16806   2.731   3.460   2.941 -0.1757 -0.0285  0.4191
 5122SOL    HW116807   2.768   3.385   2.989  0.4028  0.2476  0.4191
 5122SOL    HW216808   2.636   3.451   2.952 -0.1491 -1.0378 -0.0009
 5123SOL     OW16809   0.451   1.287   4.518  0.3648 -0.0794  0.1588
 5123SOL    HW116810   0.399   1.306   4.439  0.1671 -1.8992 -0.2033
 5123SOL    HW216811   0.391   1.303   4.591  0.1888  0.5279 -0.1128
 5124SOL     OW16812   4.038   6.304   8.693  0.1223  0.2972 -0.8947
 5124SOL    HW116813   4.116   6.264   8.652  0.7884 -0.8044  1.2742
 5124SOL    HW216814   4.038   6.268   8.782 -2.3769  1.0096 -0.5570
 5125SOL     OW16815   5.412   2.442   2.406  0.2843  0.0183 -0.0156
 5125SOL    HW116816   5.431   2.508   2.473  0.1645  1.0093 -0.9341
 5125SOL    HW216817   5.360   2.489   2.341 -2.2246 -1.6417  0.6179
 5126SOL     OW16818   2.838   4.300   8.611 -0.2777 -0.1612  0.3601
 5126SOL    HW116819   2.746   4.316   8.632 -0.7746 -0.3373 -1.5051
 5126SOL    HW216820   2.836   4.243   8.535  1.3906 -0.4067  0.4558
 5127SOL     OW16821   6.122   5.711   5.759  0.1217  0.1402 -0.1438
 5127SOL    HW116822   6.051   5.665   5.715 -0.6960  1.1661  0.0718
 5127SOL    HW216823   6.078   5.770   5.821  1.0028  2.6271 -1.7466
 5128SOL     OW16824   7.934   6.986   3.297 -0.3087  0.0242  0.1647
 5128SOL    HW116825   8.026   6.982   3.322  0.3424 -0.2021 -2.0115
 5128SOL    HW216826   7.901   7.066   3.337  0.6314 -0.2672  1.5604
 5129SOL     OW16827   5.941   3.982   0.058  0.0518  0.3235 -0.2331
 5129SOL    HW116828   5.876   4.038   0.017 -1.2699 -1.2530 -0.3770
 5129SOL    HW216829   6.005   3.965  -0.011 -1.1673 -0.8020 -1.1222
 5130SOL     OW16830   7.288   2.755   4.983 -0.0871 -0.3550 -0.3896
 5130SOL    HW116831   7.270   2.686   4.920 -0.7741 -0.0775 -0.5155
 5130SOL    HW216832   7.201   2.790   5.005  0.2412  0.4038 -0.2609
 5131SOL     OW16833   7.044   5.188  11.971  0.6354  0.4166 -1.0750
 5131SOL    HW116834   6.961   5.216  12.009  0.8669  1.0256 -1.0060
 5131SOL    HW216835   7.036   5.208  11.878  0.3065 -0.5012 -1.2527
 5132SOL     OW16836   7.808   1.135   3.711  0.1846  0.3598  0.2544
 5132SOL    HW116837   7.895   1.169   3.695 -0.2103  1.7965  1.0144
 5132SOL    HW216838   7.764   1.139   3.626  1.0676 -1.0831 -0.2953
 5133SOL     OW16839   7.797   2.234   7.498  0.3754  0.1654  0.4459
 5133SOL    HW116840   7.848   2.307   7.534  1.5216 -0.3794 -0.0462
 5133SOL    HW216841   7.829   2.224   7.409 -1.2038  0.3425 -0.1734
 5134SOL     OW16842   1.643   1.328   5.598 -0.1836 -0.3197  0.0728
 5134SOL    HW116843   1.620   1.379   5.676  1.7456  1.2630 -0.3212
 5134SOL    HW216844   1.670   1.243   5.632 -2.4237 -0.7763  0.8377
 5135SOL     OW16845   6.450   7.752   0.521  0.4472  0.2296  0.3681
 5135SOL    HW116846   6.433   7.778   0.431  0.6133 -2.5331 -0.5794
 5135SOL    HW216847   6.395   7.809   0.574 -0.5179  1.1744 -1.5531
 5136SOL     OW16848   6.899   1.377   1.887  0.1478  0.1604 -0.0149
 5136SOL    HW116849   6.904   1.282   1.881 -0.1698  0.1375  0.0653
 5136SOL    HW216850   6.890   1.407   1.797 -0.6602  0.0580  0.0266
 5137SOL     OW16851   4.738   0.079   7.151 -0.1399 -0.0553 -0.2547
 5137SOL    HW116852   4.742  -0.016   7.142  0.8416  0.0659 -1.4521
 5137SOL    HW216853   4.786   0.112   7.075 -0.4835  1.4008  0.1268
 5138SOL     OW16854   7.891   0.352   4.592 -0.9332 -0.2703  0.7489
 5138SOL    HW116855   7.894   0.357   4.497 -0.6995 -0.3297  0.7512
 5138SOL    HW216856   7.812   0.399   4.616 -0.2312  1.0422  0.6093
 5139SOL     OW16857   1.968   5.690   4.823 -0.2905  0.4059 -0.0180
 5139SOL    HW116858   1.996   5.780   4.804 -1.4264  0.8144  0.1402
 5139SOL    HW216859   1.911   5.699   4.899 -2.4328 -0.0881 -1.4822
 5140SOL     OW16860   4.702   1.592  10.133  0.6338 -0.5950  0.2345
 5140SOL    HW116861   4.623   1.584  10.187  0.2822  0.9643 -0.0290
 5140SOL    HW216862   4.680   1.548  10.051 -0.2211  0.4222 -0.0977
 5141SOL     OW16863   4.630   1.324   8.708  0.0505  0.1950 -0.2648
 5141SOL    HW116864   4.606   1.350   8.797  0.2609 -2.7229  0.7407
 5141SOL    HW216865   4.574   1.249   8.689  0.5395  0.3015 -2.3304
 5142SOL     OW16866   2.956   0.079   9.517 -0.0912  0.3997  0.6102
 5142SOL    HW116867   2.982   0.056   9.607 -4.5236  0.3885  2.1817
 5142SOL    HW216868   2.939   0.173   9.521  0.4110  0.5419 -0.4664
 5143SOL     OW16869   1.622   1.465   0.875 -0.3378 -0.2886 -0.3496
 5143SOL    HW116870   1.571   1.543   0.898 -0.4854 -0.3024 -0.6239
 5143SOL    HW216871   1.557   1.397   0.861 -0.1393 -0.9894  1.7381
 5144SOL     OW16872   4.595   1.766   6.972 -0.0457 -0.6712 -0.1229
 5144SOL    HW116873   4.690   1.771   6.982 -0.0043 -1.3576 -0.0923
 5144SOL    HW216874   4.577   1.810   6.889  0.1531  0.5976  0.4818
 5145SOL     OW16875   1.622   0.372   8.716  0.3152 -0.0444 -0.0025
 5145SOL    HW116876   1.562   0.381   8.643 -0.4208  1.8166  0.7750
 5145SOL    HW216877   1.697   0.325   8.680 -0.3342  0.1914 -1.7386
 5146SOL     OW16878   5.517   0.617   5.645  0.1786 -0.1175  0.3821
 5146SOL    HW116879   5.442   0.617   5.585 -1.2643 -1.9026  2.0093
 5146SOL    HW216880   5.575   0.685   5.612 -0.5599 -0.9245 -2.9226
 5147SOL     OW16881   1.115   0.573  12.240  0.2727 -0.1705 -0.6237
 5147SOL    HW116882   1.030   0.533  12.260  0.7937 -1.4472 -0.8370
 5147SOL    HW216883   1.093   0.655  12.195 -0.8613  0.7782  1.5453
 5148SOL     OW16884   2.113   0.924   6.456 -0.3571 -0.1976  0.1997
 5148SOL    HW116885   2.062   0.966   6.386 -0.5311 -0.9154 -0.1103
 5148SOL    HW216886   2.073   0.838   6.466  0.2916 -0.4650  0.5134
 5149SOL     OW16887   6.818   5.935   6.700 -0.2819 -0.0920  0.0584
 5149SOL    HW116888   6.838   5.860   6.644 -0.7369  0.6034 -1.0879
 5149SOL    HW216889   6.884   5.932   6.769  0.6947 -0.6542 -0.8597
 5150SOL     OW16890   3.352   2.502   1.182 -0.2723  0.5509 -0.1023
 5150SOL    HW116891   3.320   2.508   1.092 -0.9345 -0.6316  0.0351
 5150SOL    HW216892   3.438   2.545   1.179 -0.3704  0.7078 -1.2530
 5151SOL     OW16893   0.851   5.354   6.075 -0.2823  0.3015 -0.1348
 5151SOL    HW116894   0.786   5.313   6.133  0.4986  0.1351  0.6363
 5151SOL    HW216895   0.917   5.286   6.062 -0.0233  0.6288 -0.5420
 5152SOL     OW16896   3.747   2.680   2.136  0.2260 -0.2164  0.3132
 5152SOL    HW116897   3.729   2.657   2.045  2.0838 -2.6135  0.4583
 5152SOL    HW216898   3.690   2.755   2.153 -0.3361  0.1959 -2.7302
 5153SOL     OW16899   5.862   5.233   3.213  0.5281 -0.0842  0.2628
 5153SOL    HW116900   5.833   5.178   3.286  1.2818  0.3275  0.9000
 5153SOL    HW216901   5.958   5.224   3.214  0.8253  2.4279  1.3942
 5154SOL     OW16902   1.499   1.861   1.466  0.3676 -0.1515 -0.1536
 5154SOL    HW116903   1.500   1.911   1.547 -0.8609 -0.4623  0.0814
 5154SOL    HW216904   1.486   1.770   1.494  0.4567 -0.3282 -0.6689
 5155SOL     OW16905   4.271   2.735   7.482 -0.1602 -0.6157  0.1190
 5155SOL    HW116906   4.329   2.787   7.427 -0.9741  0.7123  0.4732
 5155SOL    HW216907   4.329   2.675   7.528  0.5887 -1.4703 -1.8323
 5156SOL     OW16908   5.137   6.079   8.209  0.0332  0.1040  0.4202
 5156SOL    HW116909   5.180   6.163   8.226 -0.3052  0.7308 -1.6339
 5156SOL    HW216910   5.202   6.014   8.232  0.4627  0.9171  1.6141
 5157SOL     OW16911   0.253   4.514  12.277  0.2005 -0.8050  0.6803
 5157SOL    HW116912   0.273   4.430  12.319 -0.7187 -0.7206  1.3190
 5157SOL    HW216913   0.160   4.528  12.295 -0.0541 -0.4159 -0.8012
 5158SOL     OW16914   5.123   7.918   9.772 -0.1051 -0.1756 -0.2025
 5158SOL    HW116915   5.089   8.007   9.772 -0.4670 -0.3098 -0.1816
 5158SOL    HW216916   5.213   7.926   9.801 -0.4062  0.0883  0.6873
 5159SOL     OW16917   6.228   3.797   0.061 -0.0229  0.3301  0.1867
 5159SOL    HW116918   6.232   3.815  -0.033  0.3978 -1.2147 -0.1175
 5159SOL    HW216919   6.151   3.742   0.072  0.0746  0.2950  0.7122
 5160SOL     OW16920   4.714   0.247  11.344  0.5517 -0.1789 -0.1796
 5160SOL    HW116921   4.768   0.310  11.393 -0.0269 -0.4424  0.8301
 5160SOL    HW216922   4.777   0.202  11.287  1.2910  0.0282  0.4413
 5161SOL     OW16923   3.275   7.649  10.877 -0.0978  0.4299 -0.4671
 5161SOL    HW116924   3.252   7.691  10.960  1.2429 -1.3426  0.8733
 5161SOL    HW216925   3.311   7.719  10.823 -0.0284  1.4164  0.8338
 5162SOL     OW16926   6.293   6.733   9.974  0.0668  0.3850 -0.6023
 5162SOL    HW116927   6.212   6.770  10.008 -0.0372  0.3526 -0.8149
 5162SOL    HW216928   6.298   6.646  10.014 -0.2445  0.1999 -0.9618
 5163SOL     OW16929   7.109   6.326   5.607 -0.3439  0.0427 -0.7424
 5163SOL    HW116930   7.114   6.241   5.649  3.3183  0.3361 -0.2139
 5163SOL    HW216931   7.076   6.385   5.675  1.1650 -0.2776  0.3220
 5164SOL     OW16932   2.749   2.706   5.635 -0.4304 -0.4808 -0.4461
 5164SOL    HW116933   2.688   2.661   5.576  0.4709 -0.3796 -1.4976
 5164SOL    HW216934   2.751   2.652   5.714 -0.3677 -1.5829 -1.1762
 5165SOL     OW16935   5.400   1.953   5.463  0.5613 -0.3070  0.5285
 5165SOL    HW116936   5.485   1.956   5.419 -0.0631  0.2415 -0.6874
 5165SOL    HW216937   5.365   1.867   5.441  0.9119 -0.6519  1.2775
 5166SOL     OW16938   1.734   3.686  11.916  0.1398 -0.0475  0.2368
 5166SOL    HW116939   1.806   3.676  11.853 -0.6124  1.1308 -0.8722
 5166SOL    HW216940   1.667   3.735  11.868 -1.4454 -1.1680  1.2105
 5167SOL     OW16941   2.456   4.333   1.123 -0.3387 -0.1366 -0.0537
 5167SOL    HW116942   2.361   4.325   1.117 -0.9724  4.7641 -0.3917
 5167SOL    HW216943   2.471   4.372   1.209  1.2797 -0.0766 -0.3377
 5168SOL     OW16944   4.697   4.695   8.695  0.0282 -0.0245  0.0062
 5168SOL    HW116945   4.722   4.750   8.620  1.3149 -0.7432 -0.1339
 5168SOL    HW216946   4.678   4.609   8.656 -1.4275  0.1533  0.2795
 5169SOL     OW16947   6.823   3.107   0.100  0.3156 -0.6266  0.1204
 5169SOL    HW116948   6.737   3.068   0.117 -0.1974  0.2897 -0.3102
 5169SOL    HW216949   6.885   3.035   0.116 -0.4662 -1.1017  1.1214
 5170SOL     OW16950   3.274   5.652   0.392 -0.2640  0.5319 -0.1878
 5170SOL    HW116951   3.290   5.560   0.415  0.0588  0.4197 -0.8476
 5170SOL    HW216952   3.347   5.675   0.334  0.3135  1.5560  0.9015
 5171SOL     OW16953   3.313   7.299   0.458  0.4042 -0.1995 -0.2603
 5171SOL    HW116954   3.350   7.305   0.370  0.5224  0.2848 -0.1782
 5171SOL    HW216955   3.317   7.388   0.492  4.5611 -0.9707  1.9360
 5172SOL     OW16956   6.531   2.502   3.055 -0.3074 -0.0940  0.2407
 5172SOL    HW116957   6.449   2.457   3.074  0.0763 -0.8176  0.2036
 5172SOL    HW216958   6.549   2.553   3.134 -1.0330  0.4591  0.0664
 5173SOL     OW16959   3.446   7.495   8.056 -0.7582 -0.4404 -0.5899
 5173SOL    HW116960   3.399   7.562   8.006 -1.1972  0.1415  0.5667
 5173SOL    HW216961   3.479   7.541   8.133  2.0411 -0.7450 -1.4966
 5174SOL     OW16962   0.157   6.983   7.486  0.3894  0.7182 -0.1928
 5174SOL    HW116963   0.206   7.047   7.536 -0.6676 -0.0168  1.8906
 5174SOL    HW216964   0.205   6.901   7.498  0.2915  0.5919 -0.6416
 5175SOL     OW16965   4.715   7.743   2.934  0.5862 -0.0296  0.9851
 5175SOL    HW116966   4.686   7.718   3.021 -3.2093  0.5317  0.0782
 5175SOL    HW216967   4.746   7.833   2.944  0.1599  0.0385  1.7705
 5176SOL     OW16968   1.833   2.499   5.907  0.1601  0.3598  0.5955
 5176SOL    HW116969   1.743   2.524   5.928 -0.7814 -2.2268 -0.0750
 5176SOL    HW216970   1.858   2.437   5.975  1.0364  0.2045  0.1517
 5177SOL     OW16971   5.873   2.712   1.785  0.0090  0.2477  0.3428
 5177SOL    HW116972   5.959   2.721   1.745  0.4664  0.6566  1.3703
 5177SOL    HW216973   5.853   2.618   1.779  0.1443  0.2784 -0.6509
 5178SOL     OW16974   4.752   0.956   2.028  0.3421  0.4892  0.4050
 5178SOL    HW116975   4.762   1.034   1.974  0.4932 -0.0512 -0.3597
 5178SOL    HW216976   4.681   0.978   2.089  1.0357  1.5710  0.8514
 5179SOL     OW16977   0.112   6.685   7.248 -0.2883 -0.2910 -0.0321
 5179SOL    HW116978   0.053   6.681   7.323  2.5531  1.0586  2.4984
 5179SOL    HW216979   0.062   6.730   7.180 -1.9536  1.3836  2.1620
 5180SOL     OW16980   1.435   7.472   9.485 -0.1446  0.6343 -0.3137
 5180SOL    HW116981   1.483   7.536   9.432  0.8542 -1.4837 -2.1679
 5180SOL    HW216982   1.363   7.444   9.428 -0.9586  0.5689  0.7249
 5181SOL     OW16983   7.077   3.417   9.095 -0.3758  0.4434  0.6365
 5181SOL    HW116984   7.052   3.401   9.186 -1.0069  2.3154  0.8416
 5181SOL    HW216985   7.017   3.485   9.065  0.5128  0.6219 -0.8526
 5182SOL     OW16986   2.625   6.858   0.728 -0.2042 -0.2732  0.1292
 5182SOL    HW116987   2.644   6.899   0.813  1.6495  0.3058 -0.5149
 5182SOL    HW216988   2.621   6.932   0.667  0.2873 -0.8355 -0.5874
 5183SOL     OW16989   7.808   6.322  10.202 -0.2999  0.2827 -0.0751
 5183SOL    HW116990   7.868   6.255  10.168 -0.1497 -0.3421  1.3433
 5183SOL    HW216991   7.721   6.285  10.189 -0.2269 -0.1102  0.5157
 5184SOL     OW16992   3.597   5.220   0.470 -0.2362  0.0137 -0.2671
 5184SOL    HW116993   3.632   5.278   0.538 -2.0777  1.0236 -0.1073
 5184SOL    HW216994   3.572   5.279   0.399 -0.2211 -0.8250 -0.9791
 5185SOL     OW16995   1.140   0.653   0.066  0.7314  0.0928 -0.3896
 5185SOL    HW116996   1.104   0.645  -0.022  0.4964 -0.2101 -0.2665
 5185SOL    HW216997   1.093   0.728   0.104 -0.6780 -1.0433  0.1978
 5186SOL     OW16998   4.408   7.137   9.829 -0.8349  0.3693  0.0621
 5186SOL    HW116999   4.350   7.093   9.892  1.4436  0.8199  2.6558
 5186SOL    HW217000   4.480   7.077   9.816 -0.3923  1.0565 -0.7362
 5187SOL     OW17001   1.224   3.528   0.942 -0.2660 -0.7215  0.6280
 5187SOL    HW117002   1.150   3.576   0.979  1.0256 -0.3910  2.9919
 5187SOL    HW217003   1.280   3.509   1.017  2.9993  0.6949 -1.2145
 5188SOL     OW17004   7.268   1.662   6.388 -0.2320  0.1660 -0.6479
 5188SOL    HW117005   7.213   1.608   6.445 -0.7793 -0.6977 -1.9496
 5188SOL    HW217006   7.308   1.726   6.447 -1.2942 -0.2701  0.5899
 5189SOL     OW17007   2.602   4.279   1.939 -0.2060 -0.3843 -0.1498
 5189SOL    HW117008   2.541   4.214   1.974 -1.7533  0.9494 -0.2493
 5189SOL    HW217009   2.686   4.233   1.935 -1.2569 -2.4067 -0.3548
 5190SOL     OW17010   0.468   6.749   1.710 -0.0963 -0.2436  0.1364
 5190SOL    HW117011   0.503   6.662   1.695 -0.0306 -0.1246 -0.4277
 5190SOL    HW217012   0.450   6.783   1.622 -0.4096  0.1908  0.3630
 5191SOL     OW17013   0.045   7.047   1.065 -0.2353 -0.7329  0.4016
 5191SOL    HW117014   0.065   7.123   1.010 -0.4642  0.6017  2.0807
 5191SOL    HW217015  -0.039   7.069   1.105  0.7933 -0.7475  2.7336
 5192SOL     OW17016   0.136   4.305   0.523 -0.0979  0.2866 -0.4668
 5192SOL    HW117017   0.117   4.367   0.453 -1.3739  2.9640  2.0183
 5192SOL    HW217018   0.230   4.316   0.539  0.0060  0.3676 -1.1128
 5193SOL     OW17019   2.290   1.925   7.574  0.2193 -1.0615  0.4059
 5193SOL    HW117020   2.207   1.931   7.621 -0.0413  0.6660 -0.1916
 5193SOL    HW217021   2.330   2.011   7.585  0.5114 -0.8356 -1.8182
 5194SOL     OW17022   0.353   2.886   4.722  0.5521 -0.1574 -0.4320
 5194SOL    HW117023   0.309   2.841   4.794 -0.2168  1.2354 -0.0084
 5194SOL    HW217024   0.302   2.862   4.645  0.3090 -0.2252 -0.2515
 5195SOL     OW17025   5.759   7.128   2.222  0.0452 -0.3804  0.1814
 5195SOL    HW117026   5.834   7.070   2.238 -0.4645 -0.4477  2.7242
 5195SOL    HW217027   5.685   7.068   2.215  0.0659 -0.2609 -1.6219
 5196SOL     OW17028   1.673   0.653  11.630  0.5503 -0.4077 -0.3022
 5196SOL    HW117029   1.693   0.618  11.716  1.4614  2.1591  0.6103
 5196SOL    HW217030   1.604   0.595  11.596 -0.2474 -1.1531  2.3524
 5197SOL     OW17031   0.042   1.921   4.531 -0.9975 -0.0960 -0.0377
 5197SOL    HW117032   0.009   1.843   4.576  0.1152  0.0990  1.1612
 5197SOL    HW217033   0.136   1.905   4.521 -1.0067  0.4548 -1.1211
 5198SOL     OW17034   7.636   1.978   6.808 -0.9586 -0.4154 -0.2871
 5198SOL    HW117035   7.624   1.894   6.853  1.9207 -0.9394 -0.2581
 5198SOL    HW217036   7.636   1.955   6.715 -3.3478  0.1147 -0.4686
 5199SOL     OW17037   3.032   6.744   6.583 -0.3192 -0.0686  0.6825
 5199SOL    HW117038   3.101   6.773   6.522 -2.7449  1.2135 -1.6696
 5199SOL    HW217039   3.034   6.808   6.654  0.9577 -0.1039  0.6980
 5200SOL     OW17040   0.657   5.559   6.692  0.0568  0.0642  0.1233
 5200SOL    HW117041   0.728   5.606   6.735  1.4877 -1.3103 -0.6044
 5200SOL    HW217042   0.694   5.472   6.674 -1.3071 -0.2132 -1.6066
 5201SOL     OW17043   5.233   0.518   7.877 -0.0103  0.1415  0.6612
 5201SOL    HW117044   5.291   0.503   7.953  0.3956 -2.3125 -0.0241
 5201SOL    HW217045   5.145   0.509   7.912  0.1321  0.5437  1.1253
 5202SOL     OW17046   7.774   5.960   4.579  0.4243 -0.3023  0.5472
 5202SOL    HW117047   7.804   5.994   4.494 -2.3124 -0.5910 -0.6432
 5202SOL    HW217048   7.805   6.024   4.643  0.2779  1.3787 -0.9941
 5203SOL     OW17049   7.891   7.464   3.140 -0.1022 -0.1311  0.2724
 5203SOL    HW117050   7.850   7.381   3.115 -2.2904  0.5340  1.4633
 5203SOL    HW217051   7.833   7.531   3.105 -0.0148  0.8621  1.9243
 5204SOL     OW17052   0.320   6.927   9.380  0.2820 -0.0199  0.2956
 5204SOL    HW117053   0.389   6.887   9.327  0.6914  1.4415 -0.3139
 5204SOL    HW217054   0.317   7.018   9.351  0.4588  0.8340  2.7140
 5205SOL     OW17055   2.992   0.379   2.654 -0.2030 -0.4534 -0.2109
 5205SOL    HW117056   3.055   0.354   2.586  0.2104 -0.8402  0.3076
 5205SOL    HW217057   2.988   0.475   2.649  0.8523 -0.3780  0.1206
 5206SOL     OW17058   6.366   6.650   4.322 -0.5169  0.1110 -0.1719
 5206SOL    HW117059   6.372   6.745   4.311  0.0547 -0.0804 -1.7680
 5206SOL    HW217060   6.456   6.620   4.330 -0.5560 -0.4718 -1.5817
 5207SOL     OW17061   4.334   5.734   7.456 -0.2857 -0.3493  0.5655
 5207SOL    HW117062   4.397   5.663   7.468  0.9064  0.2385 -1.5411
 5207SOL    HW217063   4.340   5.755   7.362 -2.2495  1.0190  0.6880
 5208SOL     OW17064   6.423   0.783   8.460  0.4268  0.0596  0.0125
 5208SOL    HW117065   6.475   0.851   8.502 -1.5025  1.4064  0.3184
 5208SOL    HW217066   6.485   0.711   8.447  2.7786  2.1212 -1.1239
 5209SOL     OW17067   0.249   2.837  10.477  0.1831  0.0502 -0.2923
 5209SOL    HW117068   0.335   2.863  10.510  0.0365 -0.7320  0.7797
 5209SOL    HW217069   0.268   2.777  10.405  0.5274  0.3169 -0.4263
 5210SOL     OW17070   1.529   2.140   6.531  0.3927  0.2824  0.4806
 5210SOL    HW117071   1.537   2.182   6.617  0.8284 -0.8377  1.0091
 5210SOL    HW217072   1.528   2.046   6.550 -3.6261 -0.0092 -0.4118
 5211SOL     OW17073   2.273   5.479   9.853 -0.1258  0.6132 -0.0778
 5211SOL    HW117074   2.302   5.395   9.817 -0.9390  0.5018 -0.4962
 5211SOL    HW217075   2.214   5.455   9.925 -0.2305  0.8208 -0.0924
 5212SOL     OW17076   1.166   0.065  10.168  0.2168 -0.2196  0.2991
 5212SOL    HW117077   1.111   0.135  10.134  1.2197  1.0869  1.2642
 5212SOL    HW217078   1.228   0.109  10.226  2.1456 -1.6557 -0.5715
 5213SOL     OW17079   6.452   7.947   2.450 -0.4795 -0.5562  0.5592
 5213SOL    HW117080   6.413   8.023   2.407  0.7017 -0.4759 -0.4451
 5213SOL    HW217081   6.393   7.875   2.429  0.3963 -0.6603 -1.8835
 5214SOL     OW17082   2.028   4.024   0.719  0.2532  0.4374 -0.5059
 5214SOL    HW117083   1.979   4.013   0.638 -0.1874 -0.4299 -0.1427
 5214SOL    HW217084   2.054   4.116   0.720  0.6874  0.3400 -1.8620
 5215SOL     OW17085   2.925   2.174   0.858 -0.2718 -0.2263  0.6862
 5215SOL    HW117086   2.849   2.148   0.910 -1.6607 -1.3187 -1.7604
 5215SOL    HW217087   2.917   2.126   0.776  3.0873 -0.3734  0.2973
 5216SOL     OW17088   5.399   7.835  10.303  0.6067  0.0505 -0.0021
 5216SOL    HW117089   5.458   7.775  10.349 -0.4664 -0.7278  0.4271
 5216SOL    HW217090   5.321   7.782  10.286 -0.6853  1.5114  1.0617
 5217SOL     OW17091   7.629   0.185   8.278  0.4670 -0.0346  0.2041
 5217SOL    HW117092   7.707   0.231   8.309 -0.7370  1.8558  0.5661
 5217SOL    HW217093   7.631   0.101   8.324  1.3679  0.6855  1.5569
 5218SOL     OW17094   4.186   6.290   1.839 -0.1508  0.0081 -0.0992
 5218SOL    HW117095   4.157   6.252   1.922  2.8168 -0.6143  0.7735
 5218SOL    HW217096   4.162   6.383   1.845  0.4736  0.0838  1.7263
 5219SOL     OW17097   2.522   6.379   0.734  0.0094  0.0964  0.4168
 5219SOL    HW117098   2.577   6.457   0.737  2.0984 -1.1089 -2.1672
 5219SOL    HW217099   2.578   6.312   0.694 -2.0487 -2.4338  1.4489
 5220SOL     OW17100   3.608   1.353   8.926 -0.3275 -0.0217  0.2448
 5220SOL    HW117101   3.584   1.324   8.838  1.7665 -0.8742 -0.1105
 5220SOL    HW217102   3.524   1.370   8.969 -1.4246 -0.1172 -1.7185
 5221SOL     OW17103   2.352   6.302   2.797  0.0987  0.1251 -0.4699
 5221SOL    HW117104   2.306   6.315   2.714 -0.9365  0.6315  0.1583
 5221SOL    HW217105   2.290   6.253   2.852  0.4522  0.4765  0.2663
 5222SOL     OW17106   0.455   4.875   2.339 -0.6822  0.0683  0.4262
 5222SOL    HW117107   0.544   4.869   2.375 -1.1646  1.4958  1.9741
 5222SOL    HW217108   0.399   4.891   2.415 -1.9069  1.9532 -0.7895
 5223SOL     OW17109   2.866   0.860   1.798  0.1980  0.6565 -0.5758
 5223SOL    HW117110   2.952   0.824   1.778  0.1241 -0.3245  0.7850
 5223SOL    HW217111   2.807   0.816   1.737  0.6345  1.2478 -1.4352
 5224SOL     OW17112   3.275   3.216   7.736 -0.6094  0.1053 -0.2953
 5224SOL    HW117113   3.298   3.235   7.645  2.3303 -2.5730 -0.2759
 5224SOL    HW217114   3.281   3.301   7.780 -0.7981  1.2394 -2.3348
 5225SOL     OW17115   7.289   0.186   0.707 -0.5416  0.3654  0.3177
 5225SOL    HW117116   7.337   0.145   0.779 -1.3844  0.8106  1.1443
 5225SOL    HW217117   7.353   0.192   0.636  0.7818  1.4040  1.5478
 5226SOL     OW17118   3.662   7.026   8.358  0.1392  0.0240  0.3036
 5226SOL    HW117119   3.752   7.055   8.371 -0.4105  2.7231 -1.1334
 5226SOL    HW217120   3.609   7.105   8.368 -2.1535 -1.5298  1.4227
 5227SOL     OW17121   5.404   4.182   6.582 -0.0720  0.2418  0.2490
 5227SOL    HW117122   5.468   4.207   6.515 -0.5280  0.0955 -0.2454
 5227SOL    HW217123   5.341   4.127   6.536  0.4030 -1.0796  1.1157
 5228SOL     OW17124   2.419   4.793   7.573 -0.2052 -0.0087 -0.0899
 5228SOL    HW117125   2.491   4.855   7.564  0.7213 -1.2005 -1.4578
 5228SOL    HW217126   2.400   4.790   7.667  1.2710  0.6226  0.2527
 5229SOL     OW17127   4.416   0.009  11.751  1.0911  0.1768 -0.3267
 5229SOL    HW117128   4.442   0.066  11.679  1.4598 -0.4442 -0.6987
 5229SOL    HW217129   4.461  -0.073  11.733  1.3560  0.0813  0.7304
 5230SOL     OW17130   7.925   2.730   4.426  0.0632 -0.5060  0.0819
 5230SOL    HW117131   7.880   2.774   4.498  2.7296  1.5913  0.6232
 5230SOL    HW217132   7.894   2.773   4.347 -0.3591 -0.4905  0.2543
 5231SOL     OW17133   2.623   0.448   1.146  0.0911 -0.2004  0.0356
 5231SOL    HW117134   2.550   0.502   1.177  0.3496 -0.0912  0.4701
 5231SOL    HW217135   2.699   0.506   1.149  1.0923 -1.3615  3.7365
 5232SOL     OW17136   1.850   3.957   6.142 -1.0551 -0.0472 -0.2441
 5232SOL    HW117137   1.822   3.877   6.097 -0.7338 -0.6227  0.5504
 5232SOL    HW217138   1.827   4.028   6.082 -0.8726 -0.7693 -1.1900
 5233SOL     OW17139   3.439   7.321   4.993  0.4584 -0.1029  0.7175
 5233SOL    HW117140   3.390   7.242   5.012  1.2965 -1.6564 -2.8177
 5233SOL    HW217141   3.510   7.322   5.057  0.5499 -2.3684  0.7153
 5234SOL     OW17142   0.733   3.469   4.482 -0.2524  0.4154 -0.6333
 5234SOL    HW117143   0.819   3.505   4.459 -0.4030  1.4045  0.2668
 5234SOL    HW217144   0.679   3.546   4.501  0.3549 -0.1401  4.8057
 5235SOL     OW17145   5.826   6.131  11.348 -0.3631 -0.3857  0.1600
 5235SOL    HW117146   5.742   6.104  11.386  0.0245 -0.3046  1.1001
 5235SOL    HW217147   5.804   6.158  11.259 -1.4842  0.4553  0.6653
 5236SOL     OW17148   3.351   1.770   1.169  0.1211 -0.2523 -0.4739
 5236SOL    HW117149   3.380   1.803   1.254 -0.3791 -0.0567 -0.3788
 5236SOL    HW217150   3.317   1.847   1.123 -1.0252 -0.6046 -0.2574
 5237SOL     OW17151   6.974   2.862   2.938 -0.1555  0.3336 -0.3497
 5237SOL    HW117152   6.914   2.935   2.955  1.8998  1.9228  0.5399
 5237SOL    HW217153   7.049   2.879   2.995  1.9648 -0.5616 -2.7002
 5238SOL     OW17154   7.616   7.755   0.091  0.3762 -0.0116  0.5813
 5238SOL    HW117155   7.644   7.761  -0.000 -0.0933 -1.8900  0.2751
 5238SOL    HW217156   7.671   7.819   0.137 -0.4168  2.0944 -1.1969
 5239SOL     OW17157   6.721   2.882   1.210 -0.1352 -0.1043 -0.0960
 5239SOL    HW117158   6.650   2.927   1.257 -1.1777 -0.9254 -0.8224
 5239SOL    HW217159   6.738   2.804   1.261  0.1732  0.0340  0.0147
 5240SOL     OW17160   7.788   2.784   8.187  0.2904  0.5981 -0.4951
 5240SOL    HW117161   7.783   2.733   8.267  0.4713  1.7617  0.2808
 5240SOL    HW217162   7.769   2.722   8.117 -0.2742 -0.3393  0.4760
 5241SOL     OW17163   2.033   1.568   8.342  0.0731 -0.4654 -0.2256
 5241SOL    HW117164   2.044   1.613   8.258  0.4247  0.5012  0.3154
 5241SOL    HW217165   1.964   1.504   8.327 -0.0762 -0.0934 -1.1687
 5242SOL     OW17166   5.909   1.182   9.411  0.0790  0.1519 -0.5086
 5242SOL    HW117167   5.979   1.233   9.371  1.5103 -0.6903  0.8285
 5242SOL    HW217168   5.913   1.097   9.366  1.1727 -0.5267  0.8096
 5243SOL     OW17169   0.230   4.552   7.999 -0.5581 -0.2716  0.5501
 5243SOL    HW117170   0.321   4.533   8.021  0.0835  1.5082 -0.3424
 5243SOL    HW217171   0.215   4.641   8.031 -1.8094 -0.3260  0.1858
 5244SOL     OW17172   3.176   7.311   8.657 -0.2208  0.0931  0.2314
 5244SOL    HW117173   3.183   7.385   8.717 -0.7377  0.0771  0.3112
 5244SOL    HW217174   3.184   7.234   8.714 -0.0381  0.0807  0.1914
 5245SOL     OW17175   3.363   0.736   6.806 -1.1815 -0.2962  0.5135
 5245SOL    HW117176   3.372   0.814   6.752 -1.5294 -0.3361  0.3965
 5245SOL    HW217177   3.356   0.664   6.744  2.3379 -0.8509  0.5615
 5246SOL     OW17178   0.191   1.107   0.169 -0.0970 -0.1477 -0.0934
 5246SOL    HW117179   0.285   1.120   0.182  0.3844 -2.3692 -1.0461
 5246SOL    HW217180   0.184   1.033   0.109 -2.4808 -0.7596  0.8140
 5247SOL     OW17181   0.759   0.972   5.514 -0.2955 -0.5884  0.3878
 5247SOL    HW117182   0.727   1.051   5.558  0.7427 -0.4009  0.8299
 5247SOL    HW217183   0.732   0.982   5.423  0.9674  0.9279  0.1465
 5248SOL     OW17184   6.670   2.465  12.161 -0.0618  0.7341 -0.3437
 5248SOL    HW117185   6.752   2.415  12.162 -0.6306 -0.2307 -0.4233
 5248SOL    HW217186   6.608   2.408  12.115 -1.5121  0.2483  2.0361
 5249SOL     OW17187   0.901   4.212   2.784  0.1444  0.0612 -0.0134
 5249SOL    HW117188   0.981   4.255   2.814  0.5544 -0.3876 -0.4443
 5249SOL    HW217189   0.847   4.282   2.748  0.0412  0.4664  0.9149
 5250SOL     OW17190   6.653   6.997  11.752 -0.4706  0.4527 -0.1589
 5250SOL    HW117191   6.593   6.997  11.827  0.3239 -1.6568  0.5777
 5250SOL    HW217192   6.621   6.925  11.697  1.0752 -0.4266  0.0432
 5251SOL     OW17193   5.332   5.515   8.706 -0.2444  0.4359 -0.0335
 5251SOL    HW117194   5.382   5.584   8.749  1.0097 -0.5326  0.0947
 5251SOL    HW217195   5.328   5.444   8.770 -0.0330 -0.2726 -0.7964
 5252SOL     OW17196   5.734   2.790   8.121 -0.1821  0.3505 -0.1738
 5252SOL    HW117197   5.813   2.842   8.133 -1.1693  1.8545  0.0419
 5252SOL    HW217198   5.668   2.852   8.091 -0.6117 -1.3349 -3.1254
 5253SOL     OW17199   7.845   5.083   2.184 -0.2655  0.2039 -0.1910
 5253SOL    HW117200   7.765   5.035   2.162  0.4555 -1.3182  0.3697
 5253SOL    HW217201   7.856   5.068   2.278 -0.0631  1.5756  0.0263
 5254SOL     OW17202   4.334   2.773   9.844 -0.0409 -0.1088 -0.0926
 5254SOL    HW117203   4.291   2.859   9.845 -0.4251 -0.2891 -0.6587
 5254SOL    HW217204   4.391   2.777   9.767  0.1703 -0.2542  0.0560
 5255SOL     OW17205   7.625   3.916  10.367  0.2549  0.2184  0.1884
 5255SOL    HW117206   7.706   3.872  10.341  1.1419  1.4506  0.7511
 5255SOL    HW217207   7.599   3.873  10.448  0.3728 -0.1452  0.0335
 5256SOL     OW17208   5.817   5.667   8.181  0.6228 -0.0092  0.4259
 5256SOL    HW117209   5.908   5.675   8.210  1.0491  1.4912 -1.2015
 5256SOL    HW217210   5.822   5.666   8.086 -0.9369 -2.1338  0.2826
 5257SOL     OW17211   7.407   2.317   7.105 -0.1846  0.1565  0.5969
 5257SOL    HW117212   7.325   2.342   7.147  0.1618 -0.8019  1.8986
 5257SOL    HW217213   7.380   2.263   7.031 -0.7679  0.9156  0.2440
 5258SOL     OW17214   1.874   6.001   4.074 -0.4526  0.6060 -0.3862
 5258SOL    HW117215   1.925   6.082   4.063  1.7683 -0.5950  0.4972
 5258SOL    HW217216   1.868   5.989   4.169  2.0674 -1.8441 -0.4067
 5259SOL     OW17217   7.049   7.332   6.796  0.2503  0.0149 -0.4667
 5259SOL    HW117218   7.083   7.411   6.838  0.8489 -1.0560  1.1335
 5259SOL    HW217219   6.957   7.328   6.823  0.5769 -0.5530  0.6174
 5260SOL     OW17220   1.545   0.076   0.276 -0.1738  0.1253 -0.0869
 5260SOL    HW117221   1.567   0.087   0.183 -0.1991 -0.7962 -0.2136
 5260SOL    HW217222   1.463   0.028   0.276 -0.2945  0.3277  0.4149
 5261SOL     OW17223   5.320   3.511   8.566  0.6747 -0.5178  0.1211
 5261SOL    HW117224   5.377   3.453   8.516  1.4712  0.0932  0.3016
 5261SOL    HW217225   5.232   3.487   8.539  0.9736 -1.8529  0.2246
 5262SOL     OW17226   5.471   4.618   0.611 -0.5175 -0.5144  0.0542
 5262SOL    HW117227   5.511   4.650   0.691  0.3395 -2.0766  0.2852
 5262SOL    HW217228   5.439   4.530   0.633 -1.8873 -0.2704 -0.8236
 5263SOL     OW17229   5.438   1.786   7.603  0.0609 -0.1319  0.5922
 5263SOL    HW117230   5.428   1.691   7.594  2.7526 -0.3540 -1.2460
 5263SOL    HW217231   5.527   1.804   7.573 -0.6220  3.1052  0.1252
 5264SOL     OW17232   0.990   6.839   6.482 -0.1904  0.2450 -0.5809
 5264SOL    HW117233   1.004   6.745   6.474 -1.3441  0.0810 -0.7426
 5264SOL    HW217234   0.899   6.852   6.457 -0.1470  1.3599 -0.1877
 5265SOL     OW17235   3.683   6.918   3.117  0.3207 -0.9190  0.3460
 5265SOL    HW117236   3.723   6.832   3.122  1.7014 -0.3200  0.1200
 5265SOL    HW217237   3.757   6.979   3.114 -0.6111  0.2451  0.0184
 5266SOL     OW17238   3.624   2.229   6.830  0.0865  0.6727  0.6916
 5266SOL    HW117239   3.543   2.268   6.796 -0.3057  0.3543  1.2464
 5266SOL    HW217240   3.599   2.139   6.852  1.0909 -0.0916 -1.0591
 5267SOL     OW17241   2.417   4.892  12.293 -0.5673  0.1539 -0.1982
 5267SOL    HW117242   2.413   4.978  12.336 -1.4544  0.6481 -1.2081
 5267SOL    HW217243   2.392   4.910  12.202 -3.1588 -1.5118  0.0807
 5268SOL     OW17244   3.010   1.821   1.299 -1.0421  0.1707 -0.3104
 5268SOL    HW117245   3.023   1.781   1.385 -1.5835  2.8660  1.1346
 5268SOL    HW217246   3.076   1.780   1.243 -0.4601 -1.4194  1.4435
 5269SOL     OW17247   3.220   5.583  11.493  0.1846 -0.2194  0.2513
 5269SOL    HW117248   3.309   5.613  11.510 -0.0540  1.7635 -1.5066
 5269SOL    HW217249   3.167   5.623  11.562  0.1315  2.1982 -1.0724
 5270SOL     OW17250   5.901   0.406   4.099 -0.2631 -0.0240  0.0099
 5270SOL    HW117251   5.851   0.421   4.018 -0.3502 -1.1976 -0.1736
 5270SOL    HW217252   5.841   0.355   4.155 -0.4372  1.3036  1.0810
 5271SOL     OW17253   1.736   3.843   8.783  0.3638  0.0089 -0.6276
 5271SOL    HW117254   1.715   3.763   8.735  2.0883  0.0692 -1.5744
 5271SOL    HW217255   1.797   3.815   8.851  1.5961  0.5956 -1.4573
 5272SOL     OW17256   7.954   5.943   4.850  0.1665  0.2652  0.5689
 5272SOL    HW117257   7.958   6.006   4.778 -1.7703  0.3001  0.4394
 5272SOL    HW217258   7.983   5.992   4.927 -0.0608  0.9220  0.2398
 5273SOL     OW17259   2.363   1.159  11.479 -0.7989 -0.0683 -0.2089
 5273SOL    HW117260   2.414   1.214  11.420  1.5675 -1.2504  0.6389
 5273SOL    HW217261   2.369   1.071  11.442 -0.5056 -0.5714  0.9875
 5274SOL     OW17262   3.131   5.691   7.168  0.8079 -0.4382  0.2076
 5274SOL    HW117263   3.052   5.727   7.127  0.8275 -1.4869 -0.8082
 5274SOL    HW217264   3.136   5.734   7.253  0.9433  2.1293 -0.9799
 5275SOL     OW17265   0.457   7.724   6.902 -0.0635 -0.1190  0.4277
 5275SOL    HW117266   0.455   7.814   6.868  2.0502  0.0670  0.6255
 5275SOL    HW217267   0.422   7.732   6.991 -1.9328  0.0801 -0.2812
 5276SOL     OW17268   1.226   6.419   1.102 -0.3486 -0.5149  0.7208
 5276SOL    HW117269   1.193   6.426   1.012  0.6701  0.9245  0.4279
 5276SOL    HW217270   1.261   6.330   1.108  1.5987  0.0591 -1.0660
 5277SOL     OW17271   2.431   3.213   7.987  0.3229  0.2984  0.1963
 5277SOL    HW117272   2.521   3.234   7.963  0.4251 -0.2861  0.0528
 5277SOL    HW217273   2.428   3.225   8.082  0.2826  1.2888  0.0736
 5278SOL     OW17274   3.583   6.126   9.223 -0.1642 -0.0382  0.0106
 5278SOL    HW117275   3.642   6.127   9.148  0.0278 -0.4264  0.1526
 5278SOL    HW217276   3.635   6.091   9.295 -0.4926 -0.1468  0.2000
 5279SOL     OW17277   2.515   0.804  12.266 -0.3088  0.5406 -0.4127
 5279SOL    HW117278   2.598   0.786  12.309 -1.3367  0.5290  1.6816
 5279SOL    HW217279   2.492   0.723  12.222 -0.7916 -0.5846  1.8059
 5280SOL     OW17280   3.224   1.676   3.172 -0.1962 -0.0425  0.8400
 5280SOL    HW117281   3.182   1.761   3.184 -1.1117 -0.3831  0.1820
 5280SOL    HW217282   3.307   1.696   3.127  0.0293  0.5701  1.5069
 5281SOL     OW17283   6.079   1.534   4.907  0.0409  0.4401  0.0813
 5281SOL    HW117284   6.129   1.518   4.986 -1.7149 -0.9691  0.9884
 5281SOL    HW217285   6.131   1.495   4.837  0.2195 -1.0048  0.9848
 5282SOL     OW17286   6.892   5.029   5.054 -0.6491 -0.7128  0.2791
 5282SOL    HW117287   6.892   5.049   5.148  1.3368 -1.4996  0.5080
 5282SOL    HW217288   6.918   4.937   5.049 -2.9475 -1.3604 -0.9924
 5283SOL     OW17289   3.219   4.104   0.573 -0.0173 -0.2029 -0.0961
 5283SOL    HW117290   3.160   4.104   0.497  0.7307 -1.2166 -0.6976
 5283SOL    HW217291   3.283   4.035   0.554 -0.1202 -0.8527  1.6978
 5284SOL     OW17292   0.383   6.469   6.514  0.6115 -0.1792 -0.4203
 5284SOL    HW117293   0.348   6.537   6.573  0.2575 -0.8828  0.1949
 5284SOL    HW217294   0.478   6.479   6.520  0.5565  0.5576 -0.6900
 5285SOL     OW17295   2.829   2.008   0.622  0.4438 -0.3916  0.3120
 5285SOL    HW117296   2.816   2.024   0.529 -0.7137  0.1448  0.5389
 5285SOL    HW217297   2.740   2.011   0.659  0.6564 -2.4910  1.1488
 5286SOL     OW17298   7.045   7.226   5.616 -0.1290  0.1171  0.7707
 5286SOL    HW117299   7.069   7.154   5.558 -2.9744  0.3446 -0.9019
 5286SOL    HW217300   7.030   7.300   5.557 -2.6629  0.5137  1.7811
 5287SOL     OW17301   7.191   5.085  12.392 -0.7128  0.0580 -0.3021
 5287SOL    HW117302   7.243   5.043  12.323  1.5827 -0.0711  1.4182
 5287SOL    HW217303   7.209   5.178  12.382  2.8053 -0.1384  2.3322
 5288SOL     OW17304   7.490   6.359   4.226 -0.4976 -0.0337 -0.2383
 5288SOL    HW117305   7.521   6.443   4.261  0.8819 -1.0131  1.0213
 5288SOL    HW217306   7.567   6.322   4.182 -0.8362 -1.0118 -0.0262
 5289SOL     OW17307   1.682   5.019   0.029 -0.2631 -0.1835  0.4589
 5289SOL    HW117308   1.632   5.100   0.029 -0.6447 -0.2458 -3.4249
 5289SOL    HW217309   1.768   5.044   0.064 -1.5207  0.8624  3.1438
 5290SOL     OW17310   3.331   4.735   4.742 -0.4446  0.1786 -0.4721
 5290SOL    HW117311   3.412   4.698   4.707 -0.8499 -0.1501 -1.0723
 5290SOL    HW217312   3.357   4.821   4.776 -0.0037  0.4486 -1.4488
 5291SOL     OW17313   7.008   4.783  10.795  0.3279 -0.2802 -0.6746
 5291SOL    HW117314   7.010   4.687  10.797 -0.0250 -0.2925  0.7783
 5291SOL    HW217315   6.993   4.805  10.703  5.3867 -1.4557 -2.0919
 5292SOL     OW17316   5.171   3.126   9.904  0.1421  0.5056 -0.6356
 5292SOL    HW117317   5.078   3.121   9.882  0.0365  2.5781 -0.8042
 5292SOL    HW217318   5.216   3.102   9.824 -0.2699  2.2925 -1.4485
 5293SOL     OW17319   5.315   3.628   6.589 -0.0030  0.0473  0.3319
 5293SOL    HW117320   5.362   3.547   6.607  1.1996  0.7096  0.3122
 5293SOL    HW217321   5.366   3.696   6.633 -0.4276  0.9160 -0.4634
 5294SOL     OW17322   2.669   4.990   5.914 -0.0344 -0.0849 -0.4728
 5294SOL    HW117323   2.627   4.983   6.000 -0.6767  0.1525 -0.7550
 5294SOL    HW217324   2.649   4.907   5.871  1.1441 -0.6120 -0.0313
 5295SOL     OW17325   5.849   3.874   6.114  0.2236  0.3103  0.0981
 5295SOL    HW117326   5.783   3.851   6.049 -0.2446  2.6210 -0.3569
 5295SOL    HW217327   5.933   3.854   6.071 -0.1101  0.5931 -0.7130
 5296SOL     OW17328   5.594   6.312  11.425 -0.2778 -0.0349 -0.2639
 5296SOL    HW117329   5.666   6.270  11.473 -0.5933 -2.0534 -1.4533
 5296SOL    HW217330   5.517   6.299  11.481 -0.2970 -0.7454 -0.4412
 5297SOL     OW17331   7.067   5.374   5.872 -0.2594 -0.0112 -0.8597
 5297SOL    HW117332   7.053   5.446   5.933  1.3790 -0.3253 -0.0612
 5297SOL    HW217333   6.983   5.364   5.828 -1.4075  0.4549  1.0901
 5298SOL     OW17334   4.497   1.728   8.287 -0.4609  0.1694 -0.3013
 5298SOL    HW117335   4.517   1.644   8.246 -1.1970 -2.0483  3.4325
 5298SOL    HW217336   4.568   1.741   8.351 -2.7165 -0.1314  2.4676
 5299SOL     OW17337   1.604   0.230   1.654 -0.1882 -0.0882  0.1069
 5299SOL    HW117338   1.607   0.286   1.576 -0.1189  1.9251  1.4862
 5299SOL    HW217339   1.676   0.262   1.709  0.3352 -2.0634  0.6452
 5300SOL     OW17340   1.297   4.718   3.393 -0.4598  0.3572 -0.0237
 5300SOL    HW117341   1.352   4.710   3.316  0.1251 -0.5313  0.4683
 5300SOL    HW217342   1.259   4.631   3.405  1.5054 -0.3160  2.1597
 5301SOL     OW17343   3.350   0.531   2.336  0.6004  0.0166  0.0170
 5301SOL    HW117344   3.388   0.568   2.416 -0.6070  0.5706  0.3566
 5301SOL    HW217345   3.267   0.578   2.325 -0.4063 -1.7335 -0.2244
 5302SOL     OW17346   6.689   0.150   9.205  0.1061 -0.0984 -0.4093
 5302SOL    HW117347   6.777   0.154   9.166  0.3622 -1.8145 -0.0647
 5302SOL    HW217348   6.630   0.161   9.131  0.5777  1.6012 -0.5806
 5303SOL     OW17349   2.157   6.996  11.418 -0.1133 -0.8764  0.0325
 5303SOL    HW117350   2.151   7.091  11.419 -1.8931 -0.9638 -0.5297
 5303SOL    HW217351   2.249   6.978  11.439  0.1493  0.9356  0.5831
 5304SOL     OW17352   3.871   0.555   1.901 -0.5672  0.3531 -0.5066
 5304SOL    HW117353   3.781   0.563   1.935 -1.1857 -1.2637 -1.6211
 5304SOL    HW217354   3.926   0.571   1.978 -1.8288  0.3269  0.4576
 5305SOL     OW17355   3.866   2.634   9.631 -0.5333  0.3154  0.2668
 5305SOL    HW117356   3.866   2.721   9.670  3.3306 -0.2407  1.9887
 5305SOL    HW217357   3.917   2.643   9.551  0.1659 -0.3493  0.6166
 5306SOL     OW17358   2.936   1.280   6.989 -0.1250  0.0488 -0.4521
 5306SOL    HW117359   2.851   1.261   6.950 -0.3571  0.7358 -0.2802
 5306SOL    HW217360   2.963   1.196   7.028  0.1259 -0.6628 -2.0798
 5307SOL     OW17361   1.810   5.666  11.779 -0.6499  0.0191  0.2809
 5307SOL    HW117362   1.798   5.649  11.872  0.4465 -0.1660  0.3992
 5307SOL    HW217363   1.815   5.761  11.772  1.4178 -0.0139  0.7235
 5308SOL     OW17364   6.354   5.772   1.312 -0.1165  0.1021 -0.2412
 5308SOL    HW117365   6.414   5.794   1.241  1.4383 -0.0805  0.9713
 5308SOL    HW217366   6.298   5.704   1.275  2.5354 -2.1156 -0.4783
 5309SOL     OW17367   7.409   4.448   2.310 -0.1240  0.2266 -0.3242
 5309SOL    HW117368   7.443   4.373   2.262 -0.7543  0.1955 -0.7385
 5309SOL    HW217369   7.324   4.466   2.270  1.1688  2.9050 -2.1830
 5310SOL     OW17370   3.904   7.897   7.503 -0.0888  0.1609 -0.2072
 5310SOL    HW117371   3.849   7.837   7.452 -1.7178  0.9237  0.5855
 5310SOL    HW217372   3.994   7.874   7.477 -0.7497 -1.1032 -1.5733
 5311SOL     OW17373   3.320   0.146  10.891  0.0599  0.1393 -0.0660
 5311SOL    HW117374   3.279   0.232  10.900 -0.0516  0.2150 -1.2118
 5311SOL    HW217375   3.396   0.161  10.835 -0.9674 -0.7844 -1.8013
 5312SOL     OW17376   0.464   1.422   0.948 -0.2173  0.1250  0.0812
 5312SOL    HW117377   0.500   1.334   0.964 -0.4201  0.1697  0.8298
 5312SOL    HW217378   0.523   1.481   0.995  0.6862  0.5345 -1.5096
 5313SOL     OW17379   0.044   5.364   5.207 -0.4870 -0.5920  0.0678
 5313SOL    HW117380   0.004   5.433   5.260 -1.2737  1.6813 -3.2184
 5313SOL    HW217381  -0.029   5.325   5.159  0.3250 -1.8188 -0.2179
 5314SOL     OW17382   5.351   6.821   0.841  0.4073 -0.1061  0.3217
 5314SOL    HW117383   5.370   6.905   0.800  1.4760 -0.0832  0.8363
 5314SOL    HW217384   5.349   6.758   0.768 -1.0959  0.4518 -0.1498
 5315SOL     OW17385   4.405   2.796  10.259 -0.4075 -0.0948 -0.0600
 5315SOL    HW117386   4.435   2.772  10.171 -1.3670 -0.3389 -0.3336
 5315SOL    HW217387   4.463   2.868  10.285  2.9146 -2.8528  0.9990
 5316SOL     OW17388   4.302   4.872  11.856  0.3715 -0.3085 -0.0206
 5316SOL    HW117389   4.350   4.793  11.881 -1.5722 -1.4939  0.1108
 5316SOL    HW217390   4.282   4.915  11.939  0.3947 -0.2895 -0.0243
 5317SOL     OW17391   0.145   1.647   7.214 -0.2704  0.0861  0.3864
 5317SOL    HW117392   0.142   1.706   7.138  0.1847  0.3232  0.5438
 5317SOL    HW217393   0.237   1.646   7.239  0.0666 -2.1132 -0.6994
 5318SOL     OW17394   5.914   7.383  11.153  0.2408  0.5276 -0.5753
 5318SOL    HW117395   5.834   7.419  11.193  1.0820  0.2166  1.5242
 5318SOL    HW217396   5.969   7.459  11.137  1.0518  0.4607  1.6265
 5319SOL     OW17397   2.477   5.941   3.460  0.5343  0.6573  0.2258
 5319SOL    HW117398   2.447   5.943   3.369  0.6473  0.8408  0.1901
 5319SOL    HW217399   2.404   5.905   3.509  1.3000 -1.6710 -0.2383
 5320SOL     OW17400   5.524   3.311   1.908 -0.9411 -0.1675 -0.0568
 5320SOL    HW117401   5.611   3.271   1.901 -0.4811  0.6520  0.7301
 5320SOL    HW217402   5.488   3.306   1.820  0.1536  0.0048 -0.5331
 5321SOL     OW17403   7.136   3.663  10.191 -0.7114 -0.6725  0.2537
 5321SOL    HW117404   7.222   3.670  10.150 -0.6977  0.1319  0.4131
 5321SOL    HW217405   7.074   3.670  10.119 -0.6645 -3.7277 -0.2375
 5322SOL     OW17406   5.553   4.172   3.590  0.6761 -0.2568  0.2529
 5322SOL    HW117407   5.531   4.080   3.602 -0.6218 -0.0056  0.0067
 5322SOL    HW217408   5.480   4.219   3.630  1.1242  0.6571  0.0219
 5323SOL     OW17409   7.032   7.836   2.026  0.0878  0.2199  0.1499
 5323SOL    HW117410   6.996   7.917   1.989  0.3547  0.2642 -0.0153
 5323SOL    HW217411   6.956   7.791   2.063 -0.3066 -0.1986 -1.1340
 5324SOL     OW17412   6.023   2.361   4.814  0.2080  0.2734  0.6447
 5324SOL    HW117413   6.040   2.419   4.889 -0.3808  0.4065  0.6807
 5324SOL    HW217414   5.934   2.328   4.830  0.2240  0.0151  0.1913
 5325SOL     OW17415   1.093   4.314   6.924 -0.0733 -0.4024 -0.2683
 5325SOL    HW117416   1.040   4.235   6.918  0.3343 -0.5952 -1.4744
 5325SOL    HW217417   1.143   4.303   7.005 -0.1949 -1.2527 -0.3017
 5326SOL     OW17418   6.653   4.548  11.881 -0.1183  0.1614 -0.7425
 5326SOL    HW117419   6.613   4.520  11.963 -1.4218  1.6466 -0.8208
 5326SOL    HW217420   6.586   4.531  11.814  0.8004 -0.7262 -1.4676
 5327SOL     OW17421   5.808   3.506   6.083 -0.7213 -0.2745  0.5529
 5327SOL    HW117422   5.750   3.578   6.057  0.2506  0.7374  1.0958
 5327SOL    HW217423   5.896   3.540   6.068 -0.2393 -1.7928 -0.2902
 5328SOL     OW17424   5.497   3.170   2.144  0.0810 -0.4018  0.1659
 5328SOL    HW117425   5.412   3.187   2.186 -0.5157 -2.8354  0.1464
 5328SOL    HW217426   5.495   3.220   2.063 -0.4752  1.1587  1.1043
 5329SOL     OW17427   7.641   5.290   9.430 -0.1234 -0.4216 -0.7912
 5329SOL    HW117428   7.677   5.204   9.406  0.1118 -0.3284 -0.7642
 5329SOL    HW217429   7.688   5.315   9.509  0.0493 -0.1104 -0.9916
 5330SOL     OW17430   7.258   7.690   2.509  0.4378  0.2602 -0.2057
 5330SOL    HW117431   7.193   7.630   2.547  1.3515 -2.1625 -2.1835
 5330SOL    HW217432   7.215   7.775   2.508 -1.5906 -0.6693  1.1824
 5331SOL     OW17433   6.506   2.294   0.456 -0.2465 -0.5755  0.0897
 5331SOL    HW117434   6.466   2.216   0.418 -1.6836 -0.2517  0.8767
 5331SOL    HW217435   6.562   2.329   0.386 -1.0966 -1.2232 -0.9372
 5332SOL     OW17436   4.712   1.204   7.470  0.3678  0.9496 -0.0207
 5332SOL    HW117437   4.641   1.167   7.522  0.2611 -0.5755 -1.2082
 5332SOL    HW217438   4.791   1.186   7.521  0.2602 -0.4967 -0.3458
 5333SOL     OW17439   6.108   4.873  12.171 -0.2706 -0.4669  0.2234
 5333SOL    HW117440   6.041   4.821  12.128  0.0648 -0.5403 -0.2192
 5333SOL    HW217441   6.067   4.958  12.187 -0.8401 -0.8763  1.0019
 5334SOL     OW17442   3.664   7.510   7.667  0.1710  0.9043 -0.7371
 5334SOL    HW117443   3.712   7.515   7.751 -0.0874 -0.9032 -0.4354
 5334SOL    HW217444   3.730   7.480   7.604 -0.1031  0.2047 -0.7077
 5335SOL     OW17445   4.461   7.897   3.599 -0.3102 -0.7075 -0.5507
 5335SOL    HW117446   4.520   7.860   3.664  1.2499 -1.3888 -2.2515
 5335SOL    HW217447   4.462   7.834   3.527 -1.1131  0.5034 -1.6820
 5336SOL     OW17448   7.829   0.073   0.814 -0.2989 -0.4994  0.3015
 5336SOL    HW117449   7.819  -0.002   0.873 -1.0537  1.6783  3.2028
 5336SOL    HW217450   7.896   0.127   0.855  0.1828  0.4799 -1.6557
 5337SOL     OW17451   7.616   5.617   8.752 -0.1756  0.7513  0.1563
 5337SOL    HW117452   7.542   5.615   8.812 -0.0163 -0.1156  0.3449
 5337SOL    HW217453   7.677   5.552   8.788 -0.9649 -1.3340 -2.0459
 5338SOL     OW17454   6.661   7.723   1.857 -0.2550 -0.1092 -0.2746
 5338SOL    HW117455   6.652   7.660   1.786 -2.3766  0.7088 -0.8035
 5338SOL    HW217456   6.670   7.670   1.936  2.5515 -1.0391 -1.0966
 5339SOL     OW17457   1.472   6.706   2.310  0.0648  0.5721  0.2103
 5339SOL    HW117458   1.503   6.633   2.363  0.6009  1.3859  1.0489
 5339SOL    HW217459   1.536   6.776   2.326  0.8165  0.5581 -2.2805
 5340SOL     OW17460   4.567   4.031   7.235 -0.5529 -0.1191  0.5508
 5340SOL    HW117461   4.479   4.011   7.204 -0.6250  0.5136  0.3305
 5340SOL    HW217462   4.594   3.953   7.283 -1.7926  0.2028  1.8487
 5341SOL     OW17463   1.133   2.170   6.601 -0.3839  0.0286 -0.0633
 5341SOL    HW117464   1.081   2.137   6.674 -0.3698  1.2583  0.5328
 5341SOL    HW217465   1.157   2.259   6.627  0.8143 -0.0072 -0.9568
 5342SOL     OW17466   0.226   5.919   7.540  0.3875 -0.0457 -0.6057
 5342SOL    HW117467   0.262   6.003   7.512  0.9147 -0.6350 -1.7551
 5342SOL    HW217468   0.138   5.917   7.505  0.7982 -0.4747 -1.6570
 5343SOL     OW17469   6.227   0.554   3.567 -0.0469  0.3772 -0.0961
 5343SOL    HW117470   6.140   0.565   3.530 -0.7603 -0.6017  1.2155
 5343SOL    HW217471   6.252   0.642   3.595 -0.7659  0.6078 -0.1578
 5344SOL     OW17472   2.145   3.795  10.769  0.2997 -0.1951 -0.4425
 5344SOL    HW117473   2.221   3.815  10.824  0.0825 -0.0563 -0.1900
 5344SOL    HW217474   2.175   3.812  10.679  0.0363  1.5984 -0.2192
 5345SOL     OW17475   0.606   0.598   4.091 -0.1602  0.2557  0.6632
 5345SOL    HW117476   0.683   0.635   4.136  0.4443  0.3809 -0.4319
 5345SOL    HW217477   0.560   0.674   4.057 -1.2907  0.2422  2.0771
 5346SOL     OW17478   3.836   7.443   0.282 -0.3432 -0.0599  0.3515
 5346SOL    HW117479   3.854   7.449   0.188 -0.8407  0.7499  0.2932
 5346SOL    HW217480   3.918   7.412   0.320 -0.2089 -0.6146 -0.3724
 5347SOL     OW17481   5.185   5.415   2.965 -0.2020 -0.3089  0.0396
 5347SOL    HW117482   5.251   5.386   2.902 -0.4254  0.9174 -0.7994
 5347SOL    HW217483   5.207   5.369   3.046  1.0813 -0.6805 -0.4958
 5348SOL     OW17484   1.751   4.542  10.335 -0.1216 -0.2756  0.4481
 5348SOL    HW117485   1.741   4.615  10.274 -3.0571 -1.3606 -0.5153
 5348SOL    HW217486   1.813   4.483  10.291  0.7767  0.6981  0.3563
 5349SOL     OW17487   5.015   6.987  10.372 -0.1230  0.5042 -0.2255
 5349SOL    HW117488   5.028   7.021  10.460 -0.5680 -0.0227  0.0486
 5349SOL    HW217489   5.005   7.065  10.318 -0.7492  0.8260  0.3376
 5350SOL     OW17490   5.651   0.184   7.267  0.7086  0.5657  0.4312
 5350SOL    HW117491   5.570   0.161   7.221  1.2726  0.2737 -0.4450
 5350SOL    HW217492   5.624   0.195   7.358  0.0078 -1.3598  0.5037
 5351SOL     OW17493   2.267   2.384   7.331 -0.0194  0.6019  0.1409
 5351SOL    HW117494   2.358   2.370   7.304  0.0566 -0.9087  1.0618
 5351SOL    HW217495   2.274   2.419   7.420 -0.3483  1.0129  0.0115
 5352SOL     OW17496   6.434   1.730   2.848 -0.0475 -0.1209  0.6757
 5352SOL    HW117497   6.342   1.721   2.875  0.3052 -1.0579  1.6721
 5352SOL    HW217498   6.439   1.685   2.764 -0.7552  1.0766 -0.0361
 5353SOL     OW17499   7.653   1.626   4.025  0.5104  0.1042 -0.1834
 5353SOL    HW117500   7.638   1.544   3.978 -1.6315  0.0920  0.3890
 5353SOL    HW217501   7.610   1.692   3.970 -1.9955  0.0997  1.5842
 5354SOL     OW17502   1.506   4.855   1.553 -0.4248 -0.0393 -0.5111
 5354SOL    HW117503   1.557   4.908   1.492  0.4058 -1.5842 -1.2184
 5354SOL    HW217504   1.445   4.807   1.497  0.3116 -1.4397 -0.1545
 5355SOL     OW17505   2.052   2.131  10.159 -0.1407 -0.2450  0.1045
 5355SOL    HW117506   2.064   2.037  10.177 -0.7822 -0.4814 -0.6519
 5355SOL    HW217507   2.130   2.156  10.109 -0.4064 -0.6097 -0.5118
 5356SOL     OW17508   0.842   4.574  10.199 -0.1233 -0.4649 -0.5962
 5356SOL    HW117509   0.866   4.522  10.275 -0.2328  0.1952 -0.1033
 5356SOL    HW217510   0.748   4.560  10.189 -0.0896 -0.6384 -0.6855
 5357SOL     OW17511   5.594   4.538   9.619 -0.0327 -0.2623 -0.2572
 5357SOL    HW117512   5.657   4.572   9.682  0.1715  2.1548 -1.6613
 5357SOL    HW217513   5.513   4.527   9.670  0.1533  1.5297  0.4939
 5358SOL     OW17514   5.077   4.663   0.420 -0.2770  0.5525  0.4909
 5358SOL    HW117515   5.032   4.729   0.367 -0.4772 -0.0816 -0.1381
 5358SOL    HW217516   5.029   4.582   0.403  2.1854 -0.5955 -1.7146
 5359SOL     OW17517   0.272   5.127  11.680 -0.0647 -0.0201 -0.4178
 5359SOL    HW117518   0.225   5.199  11.722  1.1032  0.9188 -0.6686
 5359SOL    HW217519   0.205   5.061  11.664 -1.3509  1.3544 -0.9638
 5360SOL     OW17520   6.106   7.894   1.024  0.6898 -0.6665 -0.0561
 5360SOL    HW117521   6.027   7.851   0.992  0.6022  0.7892 -2.0229
 5360SOL    HW217522   6.178   7.847   0.981  0.7000 -0.1784 -0.5931
 5361SOL     OW17523   7.926   0.847   0.111 -0.0757 -0.0797 -0.4858
 5361SOL    HW117524   8.018   0.842   0.087 -0.0267  0.1892 -0.3664
 5361SOL    HW217525   7.879   0.809   0.037  0.1965 -1.3034 -0.0375
 5362SOL     OW17526   5.716   3.080   6.682 -0.3100 -0.1692  0.0368
 5362SOL    HW117527   5.722   3.176   6.692 -0.0940 -0.2296  0.5372
 5362SOL    HW217528   5.745   3.064   6.593 -1.5794  0.3453 -0.4959
 5363SOL     OW17529   4.637   2.167   4.912 -0.1386  0.5933  0.0892
 5363SOL    HW117530   4.624   2.225   4.837  0.6819  0.7099  0.0207
 5363SOL    HW217531   4.686   2.092   4.876 -1.4226 -0.2949  0.1148
 5364SOL     OW17532   5.734   1.039  10.788  0.2407  0.1383  0.0163
 5364SOL    HW117533   5.755   1.127  10.819  0.2527 -0.9120  3.4734
 5364SOL    HW217534   5.819   0.994  10.784  0.1793  0.0867 -1.2289
 5365SOL     OW17535   6.239   7.821  11.376  0.3371  0.1284 -0.3733
 5365SOL    HW117536   6.220   7.837  11.283  1.1547 -1.4652 -0.8409
 5365SOL    HW217537   6.210   7.732  11.392  2.5013 -0.5406  0.2175
 5366SOL     OW17538   6.458   1.638   4.347 -0.9571 -0.6763 -0.4851
 5366SOL    HW117539   6.393   1.665   4.412 -2.3005 -2.0971 -1.1769
 5366SOL    HW217540   6.494   1.556   4.381 -1.3573 -1.2031 -1.2925
 5367SOL     OW17541   7.548   5.670   9.980  0.3133 -0.7283 -0.3879
 5367SOL    HW117542   7.619   5.734   9.977 -0.7839  0.5918  0.6356
 5367SOL    HW217543   7.498   5.687   9.900 -0.8929  0.8633  0.6385
 5368SOL     OW17544   3.907   2.276  10.393 -0.2902  0.1241 -0.1265
 5368SOL    HW117545   3.966   2.263  10.319 -0.0763 -1.3707  0.2893
 5368SOL    HW217546   3.962   2.263  10.470 -1.1808 -1.6077  0.2699
 5369SOL     OW17547   5.416   2.092   7.708 -0.0213 -1.0008  0.0125
 5369SOL    HW117548   5.338   2.140   7.735  0.7567 -0.3399  1.2011
 5369SOL    HW217549   5.382   2.018   7.657 -1.2798  0.4619 -1.4043
 5370SOL     OW17550   0.561   5.413   3.813 -0.7973 -0.2553  0.3885
 5370SOL    HW117551   0.581   5.506   3.808  1.9544 -0.7555  0.4190
 5370SOL    HW217552   0.563   5.383   3.722  3.0891 -1.0299  0.5634
 5371SOL     OW17553   7.818   1.455  10.923 -0.3125  0.0198 -0.0500
 5371SOL    HW117554   7.868   1.533  10.946 -0.5114  0.1535 -0.0691
 5371SOL    HW217555   7.749   1.449  10.989 -0.8819  0.4059 -0.5919
 5372SOL     OW17556   2.702   5.357   2.177 -0.6926 -0.4880  0.2862
 5372SOL    HW117557   2.747   5.276   2.155 -0.6724 -0.8739  1.6656
 5372SOL    HW217558   2.712   5.366   2.271  2.0518  2.7374 -0.1043
 5373SOL     OW17559   2.930   0.376   3.411 -0.0350  0.2804  0.2688
 5373SOL    HW117560   2.932   0.323   3.491 -1.1755 -1.8664 -1.0597
 5373SOL    HW217561   2.956   0.463   3.441  0.9637 -0.7504  2.7245
 5374SOL     OW17562   1.249   0.135   8.331  0.0831 -0.0259  0.0012
 5374SOL    HW117563   1.162   0.101   8.348  0.3208 -0.0467  1.2306
 5374SOL    HW217564   1.253   0.143   8.235 -0.1858 -2.8680 -0.3205
 5375SOL     OW17565   0.581   7.468   8.301 -0.3927 -0.0851 -0.1152
 5375SOL    HW117566   0.631   7.422   8.369 -1.1604 -0.1407  0.4249
 5375SOL    HW217567   0.600   7.561   8.317 -2.5322  0.1170  1.8444
 5376SOL     OW17568   1.791   1.868   5.522 -0.1775  0.0385 -0.2613
 5376SOL    HW117569   1.875   1.884   5.478 -0.7818  1.9235 -0.8210
 5376SOL    HW217570   1.729   1.853   5.450 -0.8942  1.7204 -0.0509
 5377SOL     OW17571   4.635   5.107   9.338 -0.4358 -0.8586  0.9713
 5377SOL    HW117572   4.637   5.138   9.248 -0.2230 -1.3198  0.8117
 5377SOL    HW217573   4.725   5.119   9.369 -0.9957  1.4764  1.8938
 5378SOL     OW17574   6.234   5.042   0.910 -0.6975  0.5378 -0.1350
 5378SOL    HW117575   6.293   5.069   0.840 -1.2245 -0.1757 -0.8714
 5378SOL    HW217576   6.187   5.122   0.935  0.8474  1.2066  0.7575
 5379SOL     OW17577   6.673   6.232   6.469 -0.0079 -0.2926 -0.0431
 5379SOL    HW117578   6.604   6.287   6.431  0.2122 -0.1587 -0.2565
 5379SOL    HW217579   6.666   6.149   6.422 -0.2424 -0.3946  0.1727
 5380SOL     OW17580   6.439   2.903   8.728  0.2628  0.4071  0.3918
 5380SOL    HW117581   6.458   2.874   8.817 -0.3619  1.7485  0.9856
 5380SOL    HW217582   6.497   2.850   8.673 -0.5198 -1.6146  1.4229
 5381SOL     OW17583   3.108   3.591   6.999  0.4398  0.1015 -0.4287
 5381SOL    HW117584   3.047   3.521   6.976  0.7704 -0.1912 -0.4169
 5381SOL    HW217585   3.180   3.582   6.936  1.4138 -0.7826  0.7516
 5382SOL     OW17586   7.749   7.519   4.636  0.2700  0.4810 -0.2673
 5382SOL    HW117587   7.821   7.577   4.610  0.5022  1.1141  1.6346
 5382SOL    HW217588   7.706   7.564   4.708 -0.8866 -0.7544 -0.1419
 5383SOL     OW17589   1.280   5.891   6.013  0.2163  0.2030  0.0677
 5383SOL    HW117590   1.295   5.896   6.107 -0.3620  0.1079  0.1717
 5383SOL    HW217591   1.196   5.936   6.000 -0.3799 -0.9506 -0.2156
 5384SOL     OW17592   2.735   4.578   2.545 -0.2706 -0.3849  0.0495
 5384SOL    HW117593   2.650   4.578   2.589 -1.0758 -0.6140 -1.4723
 5384SOL    HW217594   2.716   4.602   2.455  1.3548  0.0634 -0.2074
 5385SOL     OW17595   6.070   0.658   4.157  0.3497 -0.0486  0.0482
 5385SOL    HW117596   6.025   0.743   4.153  1.5986  0.5810 -1.5068
 5385SOL    HW217597   5.999   0.594   4.162 -0.6124  1.0612  1.4804
 5386SOL     OW17598   1.888   5.519   2.529 -0.2692 -0.1393 -0.3834
 5386SOL    HW117599   1.878   5.588   2.595 -0.1697  0.4806 -1.0109
 5386SOL    HW217600   1.825   5.451   2.556 -2.0212  1.1628 -1.0158
 5387SOL     OW17601   2.732   2.890   6.347  0.5483 -0.0669  0.1407
 5387SOL    HW117602   2.656   2.834   6.360 -0.0160  0.2658 -1.5020
 5387SOL    HW217603   2.743   2.935   6.431 -1.4392  0.3436  0.2276
 5388SOL     OW17604   3.952   0.044   1.512 -0.1051  0.3080 -0.0983
 5388SOL    HW117605   3.931   0.124   1.464 -2.7554 -0.1735  0.1117
 5388SOL    HW217606   4.046   0.051   1.530  0.0659  2.5903 -1.4568
 5389SOL     OW17607   3.635   4.665   5.847 -0.1726  0.1135 -0.2002
 5389SOL    HW117608   3.728   4.664   5.825 -0.3662  0.1718 -1.0489
 5389SOL    HW217609   3.607   4.755   5.830 -0.8623 -0.4042 -2.0916
 5390SOL     OW17610   7.471   5.042  10.441  0.1872  0.0926 -0.1916
 5390SOL    HW117611   7.434   5.130  10.434 -2.2088 -0.9174 -1.1497
 5390SOL    HW217612   7.522   5.031  10.360  2.2767  1.2726  0.8670
 5391SOL     OW17613   2.713   2.485   6.151 -0.2199 -0.2223  0.2481
 5391SOL    HW117614   2.693   2.477   6.245 -0.2131 -1.0623  0.1784
 5391SOL    HW217615   2.745   2.575   6.142 -1.8706  0.4619  0.7436
 5392SOL     OW17616   3.694   5.806   6.294 -0.1162 -0.2123 -0.0819
 5392SOL    HW117617   3.748   5.866   6.242 -0.9896  0.8779  0.2288
 5392SOL    HW217618   3.710   5.832   6.385 -0.3903 -0.5448  0.0616
 5393SOL     OW17619   5.677   6.914  12.035 -0.2852  0.3690  0.0131
 5393SOL    HW117620   5.662   6.987  12.095 -0.7845 -0.2906  0.7117
 5393SOL    HW217621   5.771   6.897  12.042 -0.2121  0.7610  0.0569
 5394SOL     OW17622   7.127   4.345   4.484  0.7535  0.6038 -0.0133
 5394SOL    HW117623   7.119   4.337   4.389  0.2298 -2.7368  0.1902
 5394SOL    HW217624   7.208   4.299   4.506  0.3088  0.3738  1.2336
 5395SOL     OW17625   7.518   0.833   6.058 -0.9267 -0.6956 -0.2161
 5395SOL    HW117626   7.608   0.848   6.084 -1.0553  0.7958 -0.5457
 5395SOL    HW217627   7.524   0.778   5.980 -0.3512 -1.1699  0.1536
 5396SOL     OW17628   6.743   4.001  10.252  0.1453  0.3595  0.2168
 5396SOL    HW117629   6.817   4.041  10.297  0.9809 -0.7645 -0.1273
 5396SOL    HW217630   6.667   4.052  10.281  0.8001  0.3799  2.0292
 5397SOL     OW17631   5.415   3.588  10.858  0.1250 -0.2319  0.2521
 5397SOL    HW117632   5.352   3.542  10.913  0.3356 -0.5260  0.2452
 5397SOL    HW217633   5.497   3.585  10.907  0.3921 -0.7746 -0.2256
 5398SOL     OW17634   5.437   5.861   3.749 -0.3167 -0.2416  0.1609
 5398SOL    HW117635   5.464   5.773   3.775  0.6070  0.5724  2.1288
 5398SOL    HW217636   5.454   5.864   3.655  1.3257 -1.5891  0.3649
 5399SOL     OW17637   1.437   6.539   5.517 -0.1062 -0.0304 -0.3194
 5399SOL    HW117638   1.500   6.468   5.533 -1.5968 -1.1403  0.9629
 5399SOL    HW217639   1.441   6.553   5.422  0.9623 -1.1483 -0.4643
 5400SOL     OW17640   4.760   1.259   2.477  0.3494 -0.2091  0.1500
 5400SOL    HW117641   4.820   1.315   2.428 -1.4198  2.3043  0.6259
 5400SOL    HW217642   4.683   1.251   2.419 -0.8070  0.8265  1.4626
 5401SOL     OW17643   1.549   3.890   6.983  0.2562  0.3924  0.0686
 5401SOL    HW117644   1.499   3.910   7.062 -0.2504 -2.2289  0.4879
 5401SOL    HW217645   1.485   3.850   6.923  0.6555  2.2054 -1.6806
 5402SOL     OW17646   2.164   1.249   7.205 -0.5504 -0.1270  0.0814
 5402SOL    HW117647   2.157   1.332   7.251  1.1086 -0.6167  1.3102
 5402SOL    HW217648   2.113   1.187   7.257 -1.8970  0.1025 -0.9052
 5403SOL     OW17649   2.535   3.974   2.207 -0.0987  0.1219 -0.7643
 5403SOL    HW117650   2.489   4.009   2.131  1.1359  1.6738 -0.8513
 5403SOL    HW217651   2.610   4.032   2.219  0.5654 -0.9644  0.7502
 5404SOL     OW17652   5.656   5.800   3.337  0.2641  0.6261 -0.1023
 5404SOL    HW117653   5.700   5.864   3.394 -1.0324  1.0448  0.4620
 5404SOL    HW217654   5.713   5.722   3.340  1.1791  1.2886  0.2547
 5405SOL     OW17655   5.690   3.984   5.113  0.1431  0.1314 -0.0258
 5405SOL    HW117656   5.749   4.018   5.047  2.2826  0.3823  1.9049
 5405SOL    HW217657   5.738   3.911   5.154 -1.6480 -0.9036  0.3760
 5406SOL     OW17658   2.748   7.915   7.274 -0.6651  0.2428  0.2972
 5406SOL    HW117659   2.653   7.929   7.269 -0.8064 -0.3613  1.0007
 5406SOL    HW217660   2.758   7.846   7.340  0.2315 -0.0968 -0.1797
 5407SOL     OW17661   7.798   5.456  11.853 -0.1037 -0.2390  0.5703
 5407SOL    HW117662   7.769   5.498  11.772 -0.7231  0.7644  1.2829
 5407SOL    HW217663   7.743   5.496  11.921  0.2585 -1.2158  1.4574
 5408SOL     OW17664   5.233   1.813  11.768 -0.2037  0.1923  0.1022
 5408SOL    HW117665   5.191   1.804  11.854  0.0342 -0.5495  0.1480
 5408SOL    HW217666   5.325   1.831  11.788 -0.5317  2.1971  0.0048
 5409SOL     OW17667   0.929   2.339   4.765  0.2531  0.3052  0.1976
 5409SOL    HW117668   0.997   2.278   4.794 -0.1067  0.1240  0.6582
 5409SOL    HW217669   0.846   2.294   4.782  0.0111  0.4999 -0.4227
 5410SOL     OW17670   1.863   4.564   0.739  0.3983 -0.1699  0.5204
 5410SOL    HW117671   1.955   4.542   0.754 -0.3949 -2.3365  2.8919
 5410SOL    HW217672   1.826   4.485   0.698 -0.1354  1.2918 -2.0561
 5411SOL     OW17673   4.926   2.635   5.175  0.6493  0.2766 -0.1382
 5411SOL    HW117674   4.903   2.692   5.248  2.2613  0.9410 -0.1345
 5411SOL    HW217675   4.952   2.694   5.105  0.6184 -0.4083 -0.7397
 5412SOL     OW17676   2.551   0.079   3.858  0.2970  0.3498  0.5514
 5412SOL    HW117677   2.480   0.106   3.916  0.2161  0.3476  0.4534
 5412SOL    HW217678   2.621   0.052   3.917  1.0103  2.3621  0.6766
 5413SOL     OW17679   3.896   4.734   6.276  0.7113  0.0892 -0.0301
 5413SOL    HW117680   3.804   4.720   6.253  0.7682  0.1949 -0.3342
 5413SOL    HW217681   3.895   4.758   6.368  0.4449 -0.0451  0.0025
 5414SOL     OW17682   4.875   6.724  10.827 -0.4011 -0.0779 -0.0774
 5414SOL    HW117683   4.839   6.750  10.911 -0.4743  0.9030 -0.4075
 5414SOL    HW217684   4.831   6.779  10.763  1.2481  0.7704 -0.5419
 5415SOL     OW17685   5.345   5.654   1.732  0.1803  0.1510 -0.2180
 5415SOL    HW117686   5.266   5.640   1.681  1.2164  1.7509 -2.3820
 5415SOL    HW217687   5.358   5.570   1.778 -2.5215 -0.2640 -0.0161
 5416SOL     OW17688   6.707   4.911   1.017  0.1261 -0.4164  0.4846
 5416SOL    HW117689   6.643   4.857   1.064  0.7249 -0.6633  1.0240
 5416SOL    HW217690   6.710   4.993   1.067 -1.1326  0.3294 -0.6002
 5417SOL     OW17691   6.862   2.621   2.949 -0.7983 -0.2716 -0.3628
 5417SOL    HW117692   6.901   2.574   3.022 -0.8489 -1.1339 -0.8804
 5417SOL    HW217693   6.916   2.700   2.940  0.6621 -1.2859 -0.8765
 5418SOL     OW17694   2.907   3.299   6.516  0.3671 -0.1786 -0.1640
 5418SOL    HW117695   2.832   3.264   6.565 -0.2531  0.7704 -0.4080
 5418SOL    HW217696   2.938   3.225   6.465 -1.7847 -0.1101 -1.7237
 5419SOL     OW17697   1.146   4.795   2.849  0.4592 -0.2425 -0.0762
 5419SOL    HW117698   1.152   4.877   2.801 -0.5748  0.4452  0.9393
 5419SOL    HW217699   1.179   4.815   2.936 -0.3802 -0.7454  0.3696
 5420SOL     OW17700   4.927   4.585  10.311 -0.1633 -0.2587 -0.2540
 5420SOL    HW117701   4.965   4.672  10.316 -0.2595 -0.1214 -1.6685
 5420SOL    HW217702   4.865   4.582  10.384  1.6780 -0.1021  1.4079
 5421SOL     OW17703   5.722   1.751   9.860 -0.2265 -0.0965 -0.1035
 5421SOL    HW117704   5.727   1.689   9.787 -1.3413  1.9268 -2.0580
 5421SOL    HW217705   5.629   1.773   9.865  0.3593  3.1076 -1.1219
 5422SOL     OW17706   3.011   6.601  12.042 -0.2500 -1.1426  0.1950
 5422SOL    HW117707   3.084   6.559  11.996  1.5695  0.1393  1.7607
 5422SOL    HW217708   2.993   6.544  12.117 -1.6589 -2.0155 -0.7463
 5423SOL     OW17709   1.704   7.823   8.146 -0.1096  0.1517  0.5063
 5423SOL    HW117710   1.615   7.820   8.112  0.5856  0.3522 -1.4403
 5423SOL    HW217711   1.739   7.907   8.115  0.6536  0.2251  1.5207
 5424SOL     OW17712   1.528   3.407   6.796  0.1064 -0.0717 -0.2018
 5424SOL    HW117713   1.484   3.463   6.732  1.8335 -1.0003 -2.3362
 5424SOL    HW217714   1.508   3.318   6.767 -0.2097 -0.5699  1.4235
 5425SOL     OW17715   0.362   6.519   0.267 -0.6005 -0.1976  0.3532
 5425SOL    HW117716   0.357   6.452   0.198  0.9395  0.6892 -0.7023
 5425SOL    HW217717   0.456   6.531   0.281 -0.8775  0.1517  2.1551
 5426SOL     OW17718   5.291   4.789   4.581  0.6137  0.6534  0.2635
 5426SOL    HW117719   5.212   4.791   4.635  0.9269 -0.9408  0.8447
 5426SOL    HW217720   5.282   4.864   4.522 -1.5160  0.2837  0.0417
 5427SOL     OW17721   0.051   0.605   2.107 -0.3406  0.0406 -0.0308
 5427SOL    HW117722   0.003   0.653   2.175  0.9495  0.2257  0.7904
 5427SOL    HW217723   0.029   0.650   2.026 -0.9834  0.5594  0.4220
 5428SOL     OW17724   4.428   0.433   3.003  0.1986 -0.4819 -0.2173
 5428SOL    HW117725   4.361   0.413   2.937 -0.2932  4.1789 -1.5186
 5428SOL    HW217726   4.379   0.437   3.085 -0.2153 -1.2956 -0.4069
 5429SOL     OW17727   2.301   4.105   9.039  0.1416  0.2561  0.0096
 5429SOL    HW117728   2.289   4.062   8.954 -0.8605  0.9119 -0.2048
 5429SOL    HW217729   2.385   4.072   9.071  2.5316  2.7634 -2.9470
 5430SOL     OW17730   7.931   5.656   2.646 -0.0096  0.3294 -0.3001
 5430SOL    HW117731   7.892   5.744   2.641  1.3234  0.9872  0.3695
 5430SOL    HW217732   7.967   5.650   2.734 -0.9077 -1.2778 -0.0122
 5431SOL     OW17733   4.533   1.178   9.864 -0.2442  0.3715  0.0805
 5431SOL    HW117734   4.576   1.236   9.802 -1.1338 -0.3413 -1.2485
 5431SOL    HW217735   4.486   1.236   9.923 -0.0779  1.0422 -0.4402
 5432SOL     OW17736   1.767   4.960  11.438  0.7243 -0.5645  0.1474
 5432SOL    HW117737   1.725   4.881  11.472  0.1835  0.3100  1.5888
 5432SOL    HW217738   1.857   4.932  11.417 -0.0614 -2.0744 -1.4935
 5433SOL     OW17739   7.402   5.848   3.784 -0.1583 -0.1614 -0.2142
 5433SOL    HW117740   7.331   5.902   3.817  0.1101  1.2307 -1.8036
 5433SOL    HW217741   7.407   5.868   3.691  1.6254 -1.0347 -0.3578
 5434SOL     OW17742   3.805   3.114   3.308 -0.1207  0.2645  0.2289
 5434SOL    HW117743   3.731   3.105   3.248 -1.5555 -1.6899  2.1127
 5434SOL    HW217744   3.803   3.033   3.360  3.4237  0.1024  0.3443
 5435SOL     OW17745   6.568   5.382   8.734 -0.1138  0.3896 -0.1669
 5435SOL    HW117746   6.563   5.478   8.735  1.5262  0.5267  1.2884
 5435SOL    HW217747   6.478   5.353   8.748 -0.4622  1.7662  0.6418
 5436SOL     OW17748   3.493   0.999   6.229  0.0254  0.1247  0.0759
 5436SOL    HW117749   3.508   1.051   6.150 -1.1149  3.1473  1.6466
 5436SOL    HW217750   3.398   0.989   6.233  0.1396 -0.8015  0.5740
 5437SOL     OW17751   6.084   3.590   6.009  0.2597  0.1887 -0.6762
 5437SOL    HW117752   6.162   3.570   6.062 -0.0813  0.5214 -0.0318
 5437SOL    HW217753   6.117   3.597   5.919  1.1125  1.0132 -0.3253
 5438SOL     OW17754   0.956   2.523  11.251  0.0105 -0.1809 -0.0884
 5438SOL    HW117755   0.911   2.529  11.167 -0.5077  0.4749  0.2269
 5438SOL    HW217756   0.973   2.429  11.263 -0.6849 -0.3636 -0.5209
 5439SOL     OW17757   0.169   7.557   9.828 -0.6813  0.8421  0.0588
 5439SOL    HW117758   0.159   7.474   9.782  2.2274  0.2270  0.3229
 5439SOL    HW217759   0.125   7.545   9.912 -2.8378  0.6738 -1.0411
 5440SOL     OW17760   0.408   0.967   7.098 -0.2413 -0.0843 -0.1115
 5440SOL    HW117761   0.363   1.046   7.068 -0.4120 -0.0438  0.2484
 5440SOL    HW217762   0.486   0.998   7.144  0.2573 -0.1600 -0.8859
 5441SOL     OW17763   5.521   3.281   9.684  0.0125 -0.5004 -0.2584
 5441SOL    HW117764   5.452   3.340   9.654  1.2139  2.0642  1.6491
 5441SOL    HW217765   5.494   3.255   9.773  1.0663 -0.1311  0.1875
 5442SOL     OW17766   7.591   4.803   9.626 -0.5073 -0.1977  0.2680
 5442SOL    HW117767   7.547   4.887   9.616  0.9747  0.5080 -0.6907
 5442SOL    HW217768   7.577   4.759   9.542  0.7236  0.1109 -0.1121
 5443SOL     OW17769   0.572   6.093   8.574  0.1699  0.1825  0.4923
 5443SOL    HW117770   0.555   6.000   8.564 -1.6131  0.5668 -0.4521
 5443SOL    HW217771   0.493   6.136   8.540  0.7101  2.0230  1.4275
 5444SOL     OW17772   7.756   7.378   9.730  0.4809  0.3287  0.7367
 5444SOL    HW117773   7.716   7.292   9.733  1.5792 -0.2131  0.5732
 5444SOL    HW217774   7.691   7.434   9.688  0.2597 -0.7190 -0.3579
 5445SOL     OW17775   1.749   3.026   1.182 -0.3800  0.1761 -0.4522
 5445SOL    HW117776   1.781   2.976   1.106  0.1388  0.7890 -0.6471
 5445SOL    HW217777   1.678   2.973   1.217  1.1060 -1.4443  0.2379
 5446SOL     OW17778   7.431   5.166   8.691 -0.0601 -0.3611  0.3341
 5446SOL    HW117779   7.437   5.134   8.781 -0.8908  0.6779  0.7815
 5446SOL    HW217780   7.371   5.240   8.696 -0.3532 -0.4640 -1.1311
 5447SOL     OW17781   0.343   5.084   5.006 -0.3916 -0.0402  0.2342
 5447SOL    HW117782   0.426   5.067   5.051 -0.1440  1.8256  0.5914
 5447SOL    HW217783   0.316   5.171   5.038 -2.1464 -0.3136 -0.3843
 5448SOL     OW17784   3.774   7.866   8.262  0.1623 -0.5889  0.5293
 5448SOL    HW117785   3.860   7.869   8.303 -0.5677 -2.6164  2.4246
 5448SOL    HW217786   3.740   7.955   8.269  1.8480  0.1073  0.2432
 5449SOL     OW17787   7.648   1.078   5.606 -0.0149  0.4059  0.2230
 5449SOL    HW117788   7.710   1.138   5.565 -0.3034 -0.2102 -1.1824
 5449SOL    HW217789   7.683   1.062   5.693  2.2236 -0.4956 -0.7777
 5450SOL     OW17790   5.645   2.707   6.292 -0.3834 -0.1749  0.3850
 5450SOL    HW117791   5.623   2.735   6.203 -0.2034 -0.0994  0.3644
 5450SOL    HW217792   5.734   2.671   6.285  0.6336  2.0434  0.9818
 5451SOL     OW17793   3.980   0.026  11.875 -0.7177 -0.3006  0.1251
 5451SOL    HW117794   4.052   0.078  11.839 -3.0656  1.9291 -1.6654
 5451SOL    HW217795   4.009   0.005  11.964  2.7943 -0.9622 -0.9941
 5452SOL     OW17796   7.797   7.734   6.322  0.2932 -0.1588  0.1413
 5452SOL    HW117797   7.770   7.726   6.413  0.2376 -1.4068  0.0347
 5452SOL    HW217798   7.872   7.675   6.314 -1.2821 -2.1246 -1.1999
 5453SOL     OW17799   1.782   4.834   0.876  0.0305 -0.2499  0.5778
 5453SOL    HW117800   1.763   4.777   0.801 -0.6501 -0.2167  0.7215
 5453SOL    HW217801   1.871   4.809   0.902  0.1432 -0.5029 -0.0214
 5454SOL     OW17802   6.777   2.436   4.412 -0.1047 -0.5570 -0.3481
 5454SOL    HW117803   6.795   2.451   4.505 -0.7491 -1.1371 -0.1255
 5454SOL    HW217804   6.688   2.468   4.399  0.8027  1.8188 -1.3305
 5455SOL     OW17805   7.010   4.255  11.137  0.1060  0.4597  0.0632
 5455SOL    HW117806   7.010   4.348  11.114  0.1494  0.2886 -0.6331
 5455SOL    HW217807   6.920   4.238  11.167 -0.1537  0.5109 -0.6796
 5456SOL     OW17808   0.206   4.409   7.668 -0.3650  0.5461 -0.2398
 5456SOL    HW117809   0.293   4.375   7.647 -0.2917  0.9168 -0.5524
 5456SOL    HW217810   0.214   4.444   7.756  0.3779  2.4381 -1.0057
 5457SOL     OW17811   1.851   1.357   9.710 -0.3765  0.1015 -0.6128
 5457SOL    HW117812   1.794   1.366   9.787  0.9320  0.0572  0.4063
 5457SOL    HW217813   1.846   1.264   9.687 -0.9514  0.1575 -0.7341
 5458SOL     OW17814   3.470   6.655   3.918  0.3153  0.0438 -0.1018
 5458SOL    HW117815   3.424   6.597   3.979  1.5599 -0.0144  0.8121
 5458SOL    HW217816   3.498   6.598   3.847  1.0244 -0.3822  0.5066
 5459SOL     OW17817   3.475   0.242  11.703  0.0160  0.2295 -0.2191
 5459SOL    HW117818   3.416   0.263  11.630 -0.4433  0.2125  0.1445
 5459SOL    HW217819   3.485   0.147  11.699  1.4827  0.4047 -1.3950
 5460SOL     OW17820   7.770   4.045   5.288 -0.2475  0.4553 -0.1354
 5460SOL    HW117821   7.843   4.100   5.260 -1.0127  1.2920 -0.5224
 5460SOL    HW217822   7.737   4.007   5.207 -1.0574  1.1174 -0.1292
 5461SOL     OW17823   2.055   6.595   6.221 -0.2884  0.5123  0.0511
 5461SOL    HW117824   1.961   6.591   6.203 -0.2516 -0.4927  0.0217
 5461SOL    HW217825   2.064   6.661   6.290 -0.8528  1.6505 -0.9109
 5462SOL     OW17826   1.925   0.869   4.360  0.1610  0.1360 -0.3295
 5462SOL    HW117827   1.866   0.798   4.386  0.8712 -0.3117  0.0596
 5462SOL    HW217828   1.866   0.939   4.331 -0.5582 -0.3782 -0.1289
 5463SOL     OW17829   3.493   2.101  11.293  0.2602 -0.1270 -0.2747
 5463SOL    HW117830   3.402   2.070  11.292  0.5001 -1.4080  3.3282
 5463SOL    HW217831   3.497   2.163  11.365  2.4577 -1.1007  0.5412
 5464SOL     OW17832   1.029   6.391   9.230 -0.5693 -0.1653 -0.1755
 5464SOL    HW117833   1.045   6.317   9.171 -1.5600 -0.4664 -0.0896
 5464SOL    HW217834   1.092   6.458   9.203  1.9788 -1.8322  1.2090
 5465SOL     OW17835   5.388   2.194   8.192 -0.1710  0.1620 -0.1146
 5465SOL    HW117836   5.328   2.181   8.266 -0.0346  0.9151  0.1409
 5465SOL    HW217837   5.466   2.144   8.215 -0.8067 -1.1016 -0.6015
 5466SOL     OW17838   1.853   2.530   4.358 -0.0182  0.1993 -0.0211
 5466SOL    HW117839   1.855   2.456   4.418 -1.7051  0.8614  0.9190
 5466SOL    HW217840   1.783   2.510   4.296  0.7858  0.1583 -0.9465
 5467SOL     OW17841   4.804   1.957   9.712 -0.2784 -0.1789  0.3163
 5467SOL    HW117842   4.744   1.889   9.681 -2.8270  1.6262  0.9653
 5467SOL    HW217843   4.747   2.028   9.741  2.2085  1.5331  1.3701
 5468SOL     OW17844   2.483   0.527   8.822 -0.0666 -0.0640 -0.3159
 5468SOL    HW117845   2.439   0.612   8.821  0.0532 -0.0049 -0.8128
 5468SOL    HW217846   2.555   0.538   8.884  0.3330  0.3977 -0.8468
 5469SOL     OW17847   3.681   7.364   5.116 -0.2897 -0.2329 -0.2772
 5469SOL    HW117848   3.719   7.426   5.054 -0.5415  1.1518  0.9104
 5469SOL    HW217849   3.724   7.383   5.200 -3.2825  1.2586  1.0900
 5470SOL     OW17850   5.795   4.306   4.604  0.4310  0.4239  0.1962
 5470SOL    HW117851   5.729   4.357   4.557  0.6643 -0.2331 -0.8672
 5470SOL    HW217852   5.751   4.223   4.625  0.7638  0.1639 -0.1168
 5471SOL     OW17853   0.889   2.660   6.087 -0.2052  0.0764 -0.2529
 5471SOL    HW117854   0.872   2.697   6.001 -2.7683  1.0273  0.5526
 5471SOL    HW217855   0.937   2.728   6.134  0.2956 -0.0300 -0.6138
 5472SOL     OW17856   4.020   6.223   1.440  0.1036 -0.3770  0.3661
 5472SOL    HW117857   3.978   6.195   1.521  1.0255  0.5773  1.1980
 5472SOL    HW217858   4.110   6.242   1.465  0.8126 -1.5178 -1.2046
 5473SOL     OW17859   0.448   3.794  11.037 -0.0562 -0.1355  0.0501
 5473SOL    HW117860   0.413   3.762  10.954  0.0184  1.1205 -0.4777
 5473SOL    HW217861   0.543   3.791  11.026 -0.0446 -0.0495  0.1218
 5474SOL     OW17862   1.357   7.112  10.632 -0.0841 -0.0846  0.4133
 5474SOL    HW117863   1.281   7.139  10.581  0.0633  2.0773  1.2386
 5474SOL    HW217864   1.414   7.068  10.569  0.2104  2.6958 -1.4356
 5475SOL     OW17865   3.399   6.301   3.080  0.3471  0.2718 -0.0063
 5475SOL    HW117866   3.478   6.355   3.069 -0.2825  1.1450 -0.3805
 5475SOL    HW217867   3.354   6.340   3.155 -1.1163  1.5970 -1.4712
 5476SOL     OW17868   7.248   2.334   2.064 -0.9042  0.2607 -0.0475
 5476SOL    HW117869   7.246   2.416   2.113 -1.5788  0.5842 -0.5954
 5476SOL    HW217870   7.341   2.320   2.045 -0.9315  2.1330 -1.9664
 5477SOL     OW17871   7.549   3.890   0.592  0.1601  0.0768  0.5853
 5477SOL    HW117872   7.458   3.914   0.570  0.1223  1.0114  1.6284
 5477SOL    HW217873   7.561   3.924   0.681  1.1015 -1.2614  0.9985
 5478SOL     OW17874   1.369   6.293   2.012 -0.0439 -0.2902  0.1204
 5478SOL    HW117875   1.385   6.315   2.104  0.7880 -0.9071  0.1292
 5478SOL    HW217876   1.282   6.330   1.994  0.0441  0.3629  0.9755
 5479SOL     OW17877   4.686   1.156   4.634 -0.6817  0.3026 -0.1756
 5479SOL    HW117878   4.605   1.138   4.586 -0.9401 -0.4069  0.5050
 5479SOL    HW217879   4.713   1.243   4.605 -0.8372 -0.1096 -1.5823
 5480SOL     OW17880   0.733   2.056  11.731  0.5975  0.3173 -0.0054
 5480SOL    HW117881   0.669   2.027  11.666  1.1168 -1.1659  0.1222
 5480SOL    HW217882   0.691   2.131  11.773 -0.9967 -0.5160 -0.0264
 5481SOL     OW17883   3.801   1.451   5.397 -0.0147 -0.0397  0.1803
 5481SOL    HW117884   3.787   1.530   5.449  1.3336  0.8812 -0.8181
 5481SOL    HW217885   3.814   1.382   5.463 -1.9906  0.3586  1.0728
 5482SOL     OW17886   5.323   4.766   0.441 -0.5127  0.2599 -0.4239
 5482SOL    HW117887   5.237   4.725   0.438 -0.9035  1.0316  0.0271
 5482SOL    HW217888   5.377   4.705   0.491 -0.3317 -1.0368 -2.1287
 5483SOL     OW17889   2.341   1.619   2.510  0.3458 -0.3394 -0.4843
 5483SOL    HW117890   2.292   1.655   2.437 -0.3778  1.3176  0.7588
 5483SOL    HW217891   2.290   1.641   2.588  1.2851 -1.6911  0.5826
 5484SOL     OW17892   5.204   0.407   6.922  0.4630 -0.0267 -0.2099
 5484SOL    HW117893   5.263   0.351   6.871  1.1705 -0.2166  0.7857
 5484SOL    HW217894   5.155   0.457   6.857  0.9137 -0.7005 -1.0785
 5485SOL     OW17895   2.707   3.132  10.801  0.3246 -0.3749 -0.2016
 5485SOL    HW117896   2.674   3.217  10.770  0.3966  0.2717  1.4066
 5485SOL    HW217897   2.643   3.068  10.768 -0.9567  0.5511  0.3948
 5486SOL     OW17898   3.756   4.979   2.071 -0.6162  0.5025  0.1339
 5486SOL    HW117899   3.776   4.940   1.986  0.0256  0.5614  0.2507
 5486SOL    HW217900   3.769   5.073   2.058 -2.9017  0.8077 -0.3556
 5487SOL     OW17901   6.230   4.925  11.057  0.7525  0.1930 -0.3480
 5487SOL    HW117902   6.147   4.880  11.072  2.1920 -1.8653  2.3736
 5487SOL    HW217903   6.249   4.910  10.964 -0.1928 -2.5410 -0.1910
 5488SOL     OW17904   3.343   2.531   4.642  0.4353 -0.2696 -0.0317
 5488SOL    HW117905   3.396   2.469   4.692  0.1860 -1.0287 -0.6889
 5488SOL    HW217906   3.405   2.579   4.589  0.6759  0.3550  0.7953
 5489SOL     OW17907   2.060   7.526  10.788  0.1272  0.1420 -0.2748
 5489SOL    HW117908   2.104   7.610  10.800  0.1823  0.1186 -0.3158
 5489SOL    HW217909   2.058   7.512  10.694  0.7232 -0.2273 -0.2369
 5490SOL     OW17910   2.513   4.860   1.911 -0.8455 -0.2501 -0.8744
 5490SOL    HW117911   2.454   4.793   1.944 -1.5876  0.4555 -0.7123
 5490SOL    HW217912   2.502   4.856   1.816  0.0901 -1.2131 -0.9552
 5491SOL     OW17913   0.407   7.029   5.583  0.1156 -0.2417 -0.4171
 5491SOL    HW117914   0.343   6.961   5.563 -0.7685  0.9398 -1.7575
 5491SOL    HW217915   0.372   7.073   5.660 -0.7010  0.3797 -1.1274
 5492SOL     OW17916   7.799   1.076  11.490 -0.0968  0.3723 -0.3569
 5492SOL    HW117917   7.808   1.171  11.481 -0.8755  0.4173 -0.8107
 5492SOL    HW217918   7.718   1.065  11.540  0.1457 -0.0543 -0.0508
 5493SOL     OW17919   5.885   0.360   2.758 -0.0971  0.2610  0.0316
 5493SOL    HW117920   5.950   0.428   2.744  0.5391 -0.4263 -0.4022
 5493SOL    HW217921   5.804   0.408   2.776  0.1830  1.1424 -0.9478
 5494SOL     OW17922   3.338   1.935  12.393 -0.1279 -0.1123 -0.4678
 5494SOL    HW117923   3.379   1.930  12.307  2.7580  0.6540  0.7329
 5494SOL    HW217924   3.315   2.028  12.403  0.2467 -0.0455 -0.1681
 5495SOL     OW17925   5.635   0.328   5.713  0.5636 -0.5088  0.0331
 5495SOL    HW117926   5.594   0.315   5.628  0.2114 -0.8319  0.2485
 5495SOL    HW217927   5.564   0.358   5.769  0.8402 -0.0882  0.1604
 5496SOL     OW17928   1.978   4.912   7.061 -0.1007 -0.0126 -0.1683
 5496SOL    HW117929   1.986   5.003   7.033 -2.4490  0.1442 -0.5273
 5496SOL    HW217930   1.936   4.917   7.147 -1.5097 -0.7556 -0.7805
 5497SOL     OW17931   6.089   5.335  12.141  0.7329 -0.2292 -0.5878
 5497SOL    HW117932   6.129   5.330  12.228 -0.5718 -0.7651  0.0119
 5497SOL    HW217933   5.997   5.316  12.157  0.1156  1.5418 -1.8522
 5498SOL     OW17934   3.038   5.819  12.379  0.1861  0.1358 -0.1777
 5498SOL    HW117935   3.093   5.788  12.451  0.0289 -3.1468 -1.2875
 5498SOL    HW217936   3.042   5.748  12.314 -1.1836  2.1012 -2.5925
 5499SOL     OW17937   1.626   2.855   5.236 -0.2592  0.6068 -0.4456
 5499SOL    HW117938   1.708   2.899   5.258  0.1996  0.1250 -1.1357
 5499SOL    HW217939   1.644   2.762   5.246 -1.0652  0.5294  0.4827
 5500SOL     OW17940   6.541   3.421   8.107  0.4503 -0.3755  0.4462
 5500SOL    HW117941   6.604   3.358   8.072 -2.5991 -2.4162 -1.9047
 5500SOL    HW217942   6.523   3.481   8.035  0.8056  1.1830  1.5896
 5501SOL     OW17943   1.865   4.240   6.907  0.2331 -0.3739 -0.0680
 5501SOL    HW117944   1.944   4.283   6.939  0.2121 -1.6037  1.8227
 5501SOL    HW217945   1.872   4.150   6.938 -0.6586 -1.2480 -2.1894
 5502SOL     OW17946   7.270   6.263   1.889  0.8416 -0.2873 -0.1459
 5502SOL    HW117947   7.246   6.177   1.855  0.4627 -0.7752  1.2869
 5502SOL    HW217948   7.356   6.250   1.929  1.3398  0.3081 -0.9916
 5503SOL     OW17949   1.554   0.959   2.880  0.0377  0.3189 -0.2631
 5503SOL    HW117950   1.518   1.006   2.956 -0.5747  1.4093 -1.2022
 5503SOL    HW217951   1.489   0.892   2.860 -0.5514  1.0403 -0.7753
 5504SOL     OW17952   0.349   5.351   3.950 -0.1127  0.4120 -0.0343
 5504SOL    HW117953   0.425   5.372   3.896  0.4495 -1.3334  0.0178
 5504SOL    HW217954   0.385   5.336   4.037 -0.9099  2.3459  0.6966
 5505SOL     OW17955   3.150   1.462   1.622 -0.4743 -0.4527  0.0326
 5505SOL    HW117956   3.221   1.486   1.681 -1.5514  0.3037  1.0727
 5505SOL    HW217957   3.085   1.530   1.634 -0.8987 -0.4907 -1.7745
 5506SOL     OW17958   0.059   7.526   4.399 -0.4877  0.5228 -0.3767
 5506SOL    HW117959   0.070   7.493   4.310  0.3912  2.8014 -1.1977
 5506SOL    HW217960   0.148   7.525   4.436 -0.1885  2.9250 -0.8693
 5507SOL     OW17961   7.042   4.026   4.273 -0.2540 -0.1558 -0.4919
 5507SOL    HW117962   6.964   4.007   4.221 -0.8590  0.6079  0.0968
 5507SOL    HW217963   7.111   3.972   4.234 -0.7397  0.1905 -1.9109
 5508SOL     OW17964   6.049   3.165   6.978 -0.0485 -0.5427 -0.0400
 5508SOL    HW117965   5.978   3.224   7.003 -1.2377 -1.0285 -2.0359
 5508SOL    HW217966   6.025   3.081   7.016  0.6081 -0.2301  1.1054
 5509SOL     OW17967   1.509   5.267   0.021  0.1359  0.4285 -0.2715
 5509SOL    HW117968   1.447   5.335  -0.005  0.3949  0.6668 -0.2674
 5509SOL    HW217969   1.454   5.198   0.058 -0.1267  0.6349 -0.2711
 5510SOL     OW17970   7.442   4.916   5.547 -0.4351  0.3260  0.1894
 5510SOL    HW117971   7.466   4.828   5.516 -1.0881  0.1584  0.1263
 5510SOL    HW217972   7.389   4.900   5.625 -0.5977  0.6630  0.1505
 5511SOL     OW17973   5.087   5.189   0.811 -0.3910  0.2140 -0.1922
 5511SOL    HW117974   5.106   5.203   0.718  0.4048  0.1851 -0.0386
 5511SOL    HW217975   5.001   5.147   0.812  0.4059 -1.5438 -1.0264
 5512SOL     OW17976   1.367   0.597   8.696  0.0589 -0.5153  0.1492
 5512SOL    HW117977   1.422   0.539   8.644 -1.7803 -0.4734 -1.9388
 5512SOL    HW217978   1.310   0.539   8.746  1.9627 -0.5649  2.4574
 5513SOL     OW17979   6.571   5.607   7.493  0.1296  0.2983 -0.4774
 5513SOL    HW117980   6.563   5.537   7.559 -1.3006  0.4040 -0.4901
 5513SOL    HW217981   6.620   5.567   7.421  1.1732 -0.0150  0.3813
 5514SOL     OW17982   4.021   7.486   1.909 -0.5789  0.5700 -0.5430
 5514SOL    HW117983   3.938   7.500   1.863 -0.7800  1.1240 -0.0323
 5514SOL    HW217984   4.082   7.547   1.868 -1.1148  2.0902  0.8052
 5515SOL     OW17985   6.022   1.120   0.602 -0.1076  0.6156 -0.5275
 5515SOL    HW117986   6.071   1.071   0.668 -0.7417  0.0695 -0.4478
 5515SOL    HW217987   6.088   1.171   0.556  0.3307  1.1440  0.6413
 5516SOL     OW17988   3.466   2.353   8.551 -0.1116  0.3239  0.0391
 5516SOL    HW117989   3.386   2.340   8.500  0.4031 -2.8292 -0.1532
 5516SOL    HW217990   3.435   2.378   8.638 -1.5115 -2.3693  0.4212
 5517SOL     OW17991   5.853   3.768  10.887  0.9292 -0.0506 -0.0475
 5517SOL    HW117992   5.813   3.852  10.909  1.0073 -0.2658  0.9730
 5517SOL    HW217993   5.940   3.790  10.853  0.5268  0.3341 -0.8469
 5518SOL     OW17994   5.772   1.276   2.938 -0.1418  0.2132 -0.1117
 5518SOL    HW117995   5.845   1.337   2.947  0.6160 -0.8036  0.8209
 5518SOL    HW217996   5.713   1.299   3.010 -0.4581  0.6357 -0.4998
 5519SOL     OW17997   7.283   7.795   9.805  0.6029  0.0446  0.1384
 5519SOL    HW117998   7.209   7.844   9.771  1.4454 -0.0076 -1.9765
 5519SOL    HW217999   7.246   7.739   9.873 -1.4454 -0.4630 -1.2940
 5520SOL     OW18000   0.334   0.070  10.683 -0.5462 -0.1029  0.1363
 5520SOL    HW118001   0.349   0.135  10.751  0.1603 -1.3085  1.1794
 5520SOL    HW218002   0.411   0.077  10.626 -0.0127 -0.6300  0.7717
 5521SOL     OW18003   4.590   0.543   8.321  0.3279 -0.2088  0.2019
 5521SOL    HW118004   4.647   0.479   8.364  1.3552  1.7661  1.9860
 5521SOL    HW218005   4.588   0.617   8.381 -0.5237  1.6056 -1.9248
 5522SOL     OW18006   7.897   5.103   0.666  0.0696  0.4085 -0.3503
 5522SOL    HW118007   7.956   5.162   0.713 -0.4977 -0.3893  1.4189
 5522SOL    HW218008   7.841   5.065   0.733  0.2826 -2.0106 -1.4380
 5523SOL     OW18009   4.092   7.054   7.953  0.1153 -0.1962  0.1096
 5523SOL    HW118010   4.125   7.095   8.033  1.6474  0.4266 -0.8012
 5523SOL    HW218011   4.169   7.017   7.911 -0.6574 -0.4713 -1.1264
 5524SOL     OW18012   3.355   3.499   7.453  0.5221  0.1254  0.2377
 5524SOL    HW118013   3.277   3.455   7.417  0.8783 -2.0310  1.8789
 5524SOL    HW218014   3.327   3.528   7.540  1.5460 -0.7529  0.8790
 5525SOL     OW18015   1.751   2.983   2.160  0.0552  0.1743  0.0029
 5525SOL    HW118016   1.729   2.965   2.251  0.6304 -0.0655  0.0995
 5525SOL    HW218017   1.720   3.072   2.145 -0.4792  0.0439  0.2851
 5526SOL     OW18018   0.330   6.719  10.096  0.1075  0.1318  0.9170
 5526SOL    HW118019   0.396   6.719  10.027 -0.4093  0.0845  0.4171
 5526SOL    HW218020   0.248   6.698  10.051 -0.1000 -0.7733  1.6717
 5527SOL     OW18021   4.074   7.813   6.986  0.6849  0.6565  0.4327
 5527SOL    HW118022   4.134   7.882   7.014  2.7294 -0.5485 -0.7571
 5527SOL    HW218023   4.109   7.733   7.025 -0.0351 -0.1143 -0.4523
 5528SOL     OW18024   1.508   5.102   3.978 -0.0128 -0.1035  0.2582
 5528SOL    HW118025   1.512   5.008   3.992 -1.3064 -0.5876 -2.1297
 5528SOL    HW218026   1.433   5.115   3.919  2.4928  1.9153 -2.8527
 5529SOL     OW18027   2.443   3.986   2.548  0.2363 -0.0808  0.1132
 5529SOL    HW118028   2.537   4.002   2.551  0.2542 -0.2977  2.2113
 5529SOL    HW218029   2.408   4.058   2.495  1.5965 -0.1747 -0.9506
 5530SOL     OW18030   6.300   6.964   1.484  0.1839 -0.0441 -0.4983
 5530SOL    HW118031   6.222   7.019   1.482 -0.7579 -1.3079 -0.4565
 5530SOL    HW218032   6.333   6.972   1.574 -0.9092 -0.7810  0.0029
 5531SOL     OW18033   4.007   4.032   4.714 -0.2039  0.2337 -0.0968
 5531SOL    HW118034   3.979   3.986   4.793 -0.1156  0.7373  0.2300
 5531SOL    HW218035   4.063   3.969   4.669  0.5830  0.3006  0.7623
 5532SOL     OW18036   7.588   6.833   9.900  0.3756 -0.0520  0.4528
 5532SOL    HW118037   7.520   6.855   9.963 -2.2247 -1.3978 -1.6588
 5532SOL    HW218038   7.607   6.916   9.855 -2.1094 -0.1230 -0.8790
 5533SOL     OW18039   5.946   5.342  10.937 -1.0657  0.6625  0.0620
 5533SOL    HW118040   5.904   5.368  11.019 -1.3181 -3.2632  1.4046
 5533SOL    HW218041   6.029   5.303  10.964 -0.4995  0.5430 -1.7238
 5534SOL     OW18042   6.764   4.729   2.638  1.0149 -0.0746 -0.1182
 5534SOL    HW118043   6.769   4.634   2.632 -0.8465 -0.3551  1.7740
 5534SOL    HW218044   6.835   4.754   2.697  0.5719 -0.4566  0.5817
 5535SOL     OW18045   5.144   1.374  11.405 -0.4957  0.4264 -0.2985
 5535SOL    HW118046   5.072   1.328  11.446  0.3710 -0.3266  0.4352
 5535SOL    HW218047   5.107   1.414  11.326 -1.1462 -2.0858 -1.3506
 5536SOL     OW18048   3.267   2.996   9.067  0.1771 -0.1186  0.6754
 5536SOL    HW118049   3.255   3.087   9.095  0.4498  0.1403 -0.0190
 5536SOL    HW218050   3.329   3.002   8.995 -0.8297 -0.7134 -0.2678
 5537SOL     OW18051   1.213   3.534   3.072  0.0570  0.4302  0.2432
 5537SOL    HW118052   1.189   3.624   3.051  0.1064  0.3708 -0.0775
 5537SOL    HW218053   1.160   3.480   3.013 -1.4318  0.1468  1.7710
 5538SOL     OW18054   2.164   4.005   9.458  0.2446  0.5587  0.3080
 5538SOL    HW118055   2.228   4.021   9.528 -0.0054 -0.3453  0.7529
 5538SOL    HW218056   2.084   4.047   9.489 -0.2448 -0.9579  1.2065
 5539SOL     OW18057   6.846   1.266  11.931 -0.5174 -0.1408  0.1265
 5539SOL    HW118058   6.882   1.238  12.016 -0.4506 -0.7708 -0.1103
 5539SOL    HW218059   6.763   1.220  11.923 -0.1388 -0.7238 -0.5226
 5540SOL     OW18060   1.123   0.281   3.713  0.5803  0.2246  0.4308
 5540SOL    HW118061   1.129   0.348   3.645  3.3745  0.7362  1.0514
 5540SOL    HW218062   1.189   0.306   3.778  1.1606 -2.6428  1.1173
 5541SOL     OW18063   2.362   2.749  11.497 -0.4912  0.6821  0.0325
 5541SOL    HW118064   2.409   2.672  11.528 -1.8442 -0.1466  0.1067
 5541SOL    HW218065   2.409   2.823  11.535  0.6335 -0.1111  0.2345
 5542SOL     OW18066   1.970   7.112   1.085  0.2284  0.4379  0.1436
 5542SOL    HW118067   2.025   7.071   1.151  1.2710  0.6515 -0.5780
 5542SOL    HW218068   1.966   7.204   1.112  0.6937  0.5349 -0.1167
 5543SOL     OW18069   0.640   2.619   7.496 -0.1553  0.0311  0.0486
 5543SOL    HW118070   0.596   2.662   7.422  0.2714  0.4676  0.0429
 5543SOL    HW218071   0.730   2.606   7.466 -0.0991 -0.2155  0.3220
 5544SOL     OW18072   4.054   4.260   8.287 -0.3515  0.1648 -0.3049
 5544SOL    HW118073   4.144   4.259   8.319 -0.2401 -1.6800 -0.6037
 5544SOL    HW218074   4.037   4.352   8.267  1.0293  0.7259  0.9344
 5545SOL     OW18075   7.330   6.331  11.360 -0.4744 -0.2554  0.0648
 5545SOL    HW118076   7.256   6.279  11.330 -0.4427  0.9038 -2.1797
 5545SOL    HW218077   7.293   6.416  11.384 -0.0487 -0.1225  0.2783
 5546SOL     OW18078   4.362   2.987   6.810  0.5331 -0.4084  0.2993
 5546SOL    HW118079   4.389   3.024   6.894 -0.3008  0.3549  0.2343
 5546SOL    HW218080   4.321   3.059   6.763 -1.8416 -1.5374  0.4713
 5547SOL     OW18081   1.083   4.429   2.948 -0.0228 -0.1665  0.2481
 5547SOL    HW118082   1.067   4.469   3.034  0.7687 -0.9275  0.7728
 5547SOL    HW218083   1.121   4.344   2.969  3.0195  0.7871 -0.8402
 5548SOL     OW18084   5.242   4.769   3.538 -0.4664  0.1330  0.3938
 5548SOL    HW118085   5.321   4.822   3.527 -1.4928  2.1182  1.7513
 5548SOL    HW218086   5.180   4.804   3.474 -0.4039 -1.1369 -0.3901
 5549SOL     OW18087   2.476   1.250   2.438 -0.5609  0.6130  0.0131
 5549SOL    HW118088   2.529   1.178   2.475 -1.1302 -0.9342 -2.0087
 5549SOL    HW218089   2.415   1.272   2.508 -0.8069 -1.3627  0.4980
 5550SOL     OW18090   4.935   3.280   3.700 -0.0897 -0.3118 -0.2774
 5550SOL    HW118091   5.026   3.250   3.705 -0.1015 -0.2577  0.3973
 5550SOL    HW218092   4.901   3.266   3.789 -0.5017  0.4204 -0.3139
 5551SOL     OW18093   5.507   6.233   1.659  0.2577 -0.2843 -0.0732
 5551SOL    HW118094   5.570   6.241   1.587  2.1861  0.4507  1.6037
 5551SOL    HW218095   5.489   6.140   1.665  1.0784 -0.4940 -0.6926
 5552SOL     OW18096   4.504   2.602   4.332  0.2823  0.0299 -0.2441
 5552SOL    HW118097   4.485   2.695   4.319 -0.0022  0.3403  1.9588
 5552SOL    HW218098   4.594   2.592   4.302  0.5650  1.2062  0.1303
 5553SOL     OW18099   2.793   4.440   3.901 -0.0404  0.0488 -0.5380
 5553SOL    HW118100   2.816   4.368   3.842  0.8188  1.3381 -1.8204
 5553SOL    HW218101   2.877   4.475   3.930 -0.4378  1.0691 -0.5875
 5554SOL     OW18102   3.360   4.582   4.132  0.0092  0.0115  0.3553
 5554SOL    HW118103   3.308   4.657   4.104  0.3063  0.2728  0.4957
 5554SOL    HW218104   3.446   4.618   4.151  0.2898 -0.4461 -0.0262
 5555SOL     OW18105   7.638   7.012   8.371  0.5169 -0.2365 -0.4878
 5555SOL    HW118106   7.720   7.044   8.408  0.0923  2.8678 -1.9047
 5555SOL    HW218107   7.663   6.937   8.318  2.2544 -0.1362  0.1324
 5556SOL     OW18108   6.349   6.000   7.735 -0.5640  0.1401  0.5764
 5556SOL    HW118109   6.407   5.933   7.699 -0.9969  0.2680 -0.4164
 5556SOL    HW218110   6.407   6.070   7.765 -0.1562 -0.2296  0.6541
 5557SOL     OW18111   7.577   0.223   6.019 -0.1763 -0.4827  0.0426
 5557SOL    HW118112   7.506   0.286   6.007  1.8310  1.9573  0.0179
 5557SOL    HW218113   7.578   0.207   6.113 -0.2690  0.1274  0.1551
 5558SOL     OW18114   6.531   5.575   8.376 -0.5162 -0.9687 -0.1987
 5558SOL    HW118115   6.541   5.500   8.435 -1.1676 -1.3264 -0.5268
 5558SOL    HW218116   6.619   5.610   8.366 -0.5150 -0.2268  1.8424
 5559SOL     OW18117   0.753   7.200   8.364 -0.0613 -0.4385 -0.1389
 5559SOL    HW118118   0.823   7.212   8.300 -0.3566 -0.0533 -0.3988
 5559SOL    HW218119   0.769   7.267   8.430 -0.9609  0.5709 -0.9095
 5560SOL     OW18120   4.996   3.162   2.972  0.2658 -0.1374  0.1088
 5560SOL    HW118121   4.985   3.203   3.058  0.4267  1.8687 -0.7642
 5560SOL    HW218122   5.047   3.226   2.922  1.7859 -2.0534 -0.9391
 5561SOL     OW18123   7.908   2.551   7.273  0.2060 -0.8879 -0.2454
 5561SOL    HW118124   7.973   2.586   7.334 -0.0771 -2.4817  1.0643
 5561SOL    HW218125   7.833   2.610   7.282  0.7783 -0.1271 -0.3425
 5562SOL     OW18126   6.595   1.993   7.659  0.2828 -0.0641 -0.2303
 5562SOL    HW118127   6.616   1.909   7.701  2.3874  0.1418 -0.7378
 5562SOL    HW218128   6.517   2.024   7.705 -0.0579 -1.9073  0.5296
 5563SOL     OW18129   7.668   5.009   0.876  0.4077 -0.3352 -0.1986
 5563SOL    HW118130   7.686   5.084   0.932 -0.8261  0.7333 -1.1896
 5563SOL    HW218131   7.670   4.934   0.936 -2.3289  0.8910  1.6723
 5564SOL     OW18132   1.930   6.513   8.506 -0.4831 -0.5510  0.3931
 5564SOL    HW118133   1.981   6.439   8.540 -0.5231 -0.6199  0.3035
 5564SOL    HW218134   1.949   6.513   8.412 -0.0530 -0.1119  0.4783
 5565SOL     OW18135   3.652   1.231   1.632  0.1551 -0.2676 -0.2752
 5565SOL    HW118136   3.568   1.257   1.593 -0.0760  0.6270  0.7770
 5565SOL    HW218137   3.713   1.301   1.607  0.3514 -0.4167 -0.2198
 5566SOL     OW18138   1.860   4.652  10.692  0.6837 -0.2692  0.0199
 5566SOL    HW118139   1.778   4.658  10.741 -0.7046  2.0375 -2.3206
 5566SOL    HW218140   1.910   4.730  10.719 -0.4496  1.4990 -2.5706
 5567SOL     OW18141   2.452   2.721   4.385  0.1826  0.3541  0.1999
 5567SOL    HW118142   2.410   2.748   4.467  1.0113  0.4102  0.6120
 5567SOL    HW218143   2.487   2.802   4.348  0.9052  0.1530  0.4264
 5568SOL     OW18144   5.572   0.373   3.886  0.1713  0.1980 -0.0486
 5568SOL    HW118145   5.500   0.323   3.847  1.1370 -0.6268 -0.8461
 5568SOL    HW218146   5.574   0.344   3.977 -1.8266  1.8056  0.5722
 5569SOL     OW18147   1.288   6.361   3.221 -0.3118 -0.2217 -0.1004
 5569SOL    HW118148   1.319   6.270   3.219 -0.4494 -0.2721 -1.6334
 5569SOL    HW218149   1.366   6.413   3.201  0.3343  0.2432  3.1574
 5570SOL     OW18150   1.148   1.299   6.851  0.2313  0.2430  0.5634
 5570SOL    HW118151   1.194   1.316   6.769  2.2518  0.1774  1.6284
 5570SOL    HW218152   1.146   1.204   6.859 -1.1179  0.2015  0.0030
 5571SOL     OW18153   1.228   3.364  12.340 -0.2228  0.1346 -1.0491
 5571SOL    HW118154   1.300   3.425  12.357 -0.3754 -0.4077  2.0201
 5571SOL    HW218155   1.150   3.420  12.337 -0.1288  0.3163 -0.2535
 5572SOL     OW18156   5.008   6.433   9.182  0.5091 -0.3680 -0.1483
 5572SOL    HW118157   4.988   6.514   9.228  0.4281 -0.3738 -0.1714
 5572SOL    HW218158   5.015   6.367   9.251  1.8788 -0.1027 -0.0093
 5573SOL     OW18159   5.798   5.228   5.763  0.6006 -0.7437  0.1102
 5573SOL    HW118160   5.714   5.201   5.727 -0.1707  0.5713  0.8591
 5573SOL    HW218161   5.785   5.225   5.858  1.7407 -1.5255  0.2674
 5574SOL     OW18162   4.174   6.075   5.336 -0.2604  0.0774  0.4841
 5574SOL    HW118163   4.176   5.979   5.330  2.4931  0.0584  0.1040
 5574SOL    HW218164   4.181   6.093   5.430  2.2517 -0.2216  0.4377
 5575SOL     OW18165   0.800   1.629  10.095  0.3951  0.0406 -0.1544
 5575SOL    HW118166   0.794   1.721  10.068 -1.0463 -0.3566 -1.3442
 5575SOL    HW218167   0.737   1.622  10.166 -0.1650 -0.2013 -0.6627
 5576SOL     OW18168   0.209   6.331  10.806 -0.2692 -0.5413  0.0136
 5576SOL    HW118169   0.172   6.412  10.840  0.0459 -0.7294  0.8372
 5576SOL    HW218170   0.279   6.309  10.867 -0.5368 -1.5832 -0.0260
 5577SOL     OW18171   5.563   0.949  11.471  0.4901 -0.2306 -0.3832
 5577SOL    HW118172   5.643   0.986  11.434  0.4737  0.3496  0.1431
 5577SOL    HW218173   5.585   0.932  11.563  0.3893 -1.2226 -0.5410
 5578SOL     OW18174   7.094   5.774   1.205  0.3508  0.3368 -0.1942
 5578SOL    HW118175   7.162   5.718   1.241 -0.8941 -0.2791  1.3418
 5578SOL    HW218176   7.018   5.716   1.195 -1.0665  1.7359  1.6933
 5579SOL     OW18177   1.071   7.178   8.443 -0.0599 -0.6062  0.2936
 5579SOL    HW118178   1.033   7.217   8.365 -2.6258  0.1159  1.7943
 5579SOL    HW218179   1.134   7.115   8.409  1.6659  2.2224 -2.2729
 5580SOL     OW18180   7.219   4.847   8.679 -0.0297  0.2384 -0.1590
 5580SOL    HW118181   7.183   4.771   8.724 -0.5758  0.4085 -0.3038
 5580SOL    HW218182   7.158   4.919   8.700  0.6312  0.7056  0.2155
 5581SOL     OW18183   0.217   1.324  10.388 -0.1530  0.6182 -0.2171
 5581SOL    HW118184   0.127   1.297  10.368 -0.2322 -0.3275  1.3330
 5581SOL    HW218185   0.222   1.324  10.483  1.4364  0.8865 -0.2739
 5582SOL     OW18186   2.796   3.726   1.325  0.5056 -0.0351 -0.6851
 5582SOL    HW118187   2.836   3.745   1.410 -1.5963  0.4387  0.2537
 5582SOL    HW218188   2.819   3.635   1.307  0.0853 -0.4912  0.9394
 5583SOL     OW18189   0.821   6.295  11.700  0.0518  0.3104 -0.1957
 5583SOL    HW118190   0.768   6.286  11.779  0.9712  3.4395  0.9213
 5583SOL    HW218191   0.910   6.305  11.732  0.6540  0.2293 -1.7506
 5584SOL     OW18192   2.478   0.738   2.957  1.0661 -0.0008 -0.0913
 5584SOL    HW118193   2.509   0.801   2.893  0.9054  0.0685 -0.1025
 5584SOL    HW218194   2.412   0.687   2.910  1.0832 -0.0736 -0.0363
 5585SOL     OW18195   0.912   6.136   0.899  0.5068 -0.4334  0.2607
 5585SOL    HW118196   0.853   6.127   0.824  0.6468  0.0339  0.0871
 5585SOL    HW218197   0.855   6.149   0.974  0.3538 -1.2471  0.2921
 5586SOL     OW18198   3.240   4.855   5.248 -0.0603 -0.3540  0.6531
 5586SOL    HW118199   3.205   4.819   5.167  0.4096 -0.2924  0.4211
 5586SOL    HW218200   3.168   4.905   5.286  0.0480  0.5214 -0.2681
 5587SOL     OW18201   2.489   2.162   6.572 -0.0186  0.0879  0.2065
 5587SOL    HW118202   2.437   2.239   6.594  0.1864  0.6024 -1.0129
 5587SOL    HW218203   2.427   2.101   6.531  0.3221  0.7664 -1.3938
 5588SOL     OW18204   2.571   1.232  10.710 -0.1842  0.2867 -0.6415
 5588SOL    HW118205   2.580   1.214  10.616  1.6062 -3.3826  0.0774
 5588SOL    HW218206   2.659   1.256  10.738 -0.4161 -0.0243  0.3646
 5589SOL     OW18207   0.509   3.330   9.655  0.0944 -0.5282  0.4758
 5589SOL    HW118208   0.527   3.408   9.708 -0.9900  0.4791 -0.5965
 5589SOL    HW218209   0.442   3.283   9.704  0.6432 -0.7358  1.0483
 5590SOL     OW18210   1.024   1.306   4.419 -0.2439 -0.5581 -0.2978
 5590SOL    HW118211   1.016   1.319   4.324 -0.5792  1.7469 -0.0134
 5590SOL    HW218212   0.970   1.376   4.457  0.0248 -1.3288  1.6126
 5591SOL     OW18213   7.063   1.187  11.648  0.0575  0.6493 -0.5072
 5591SOL    HW118214   7.117   1.152  11.719  0.1989  1.1497 -0.3692
 5591SOL    HW218215   7.066   1.118  11.581 -1.0531 -0.3732  0.4338
 5592SOL     OW18216   6.707   1.655  12.163 -0.1891  0.6409  0.0422
 5592SOL    HW118217   6.785   1.600  12.152 -0.3396  0.7556 -2.0365
 5592SOL    HW218218   6.720   1.698  12.248  0.7540 -1.2690  0.9189
 5593SOL     OW18219   3.230   7.136   3.065 -0.0852  0.2207 -0.4510
 5593SOL    HW118220   3.275   7.095   3.139  0.9210  1.1564 -0.5147
 5593SOL    HW218221   3.242   7.075   2.992  0.4294  0.1052 -0.2721
 5594SOL     OW18222   2.163   0.865  10.878 -0.5696  0.1448  0.3007
 5594SOL    HW118223   2.121   0.951  10.881  1.9563  1.5191 -0.6314
 5594SOL    HW218224   2.211   0.859  10.961 -1.6415 -0.9524  0.8892
 5595SOL     OW18225   2.349   2.267  11.554  0.2338  0.0066  0.0966
 5595SOL    HW118226   2.393   2.294  11.474 -0.9349  0.2643 -0.4752
 5595SOL    HW218227   2.302   2.344  11.583  0.1517 -0.2642  0.6998
 5596SOL     OW18228   2.297   7.214   7.079  0.2061  0.2245  0.1501
 5596SOL    HW118229   2.221   7.271   7.067  0.7814  0.9052 -0.3460
 5596SOL    HW218230   2.263   7.140   7.129 -0.3470  1.4378  1.6474
 5597SOL     OW18231   0.272   6.503   7.586  0.0278  0.5857 -0.0966
 5597SOL    HW118232   0.265   6.464   7.500 -1.9198 -0.7118  0.5939
 5597SOL    HW218233   0.322   6.439   7.638  0.1144  0.7772  0.0586
 5598SOL     OW18234   7.144   2.080   2.531 -0.1777  0.0534 -0.0029
 5598SOL    HW118235   7.183   2.108   2.449 -0.7942  0.9529  0.0039
 5598SOL    HW218236   7.077   2.145   2.550 -2.4455 -1.9488 -0.5556
 5599SOL     OW18237   6.665   6.120   7.639 -0.1815 -0.4980  0.2432
 5599SOL    HW118238   6.716   6.072   7.704 -2.3693 -0.6239  1.9834
 5599SOL    HW218239   6.591   6.064   7.619 -0.6678  0.4557 -0.7686
 5600SOL     OW18240   2.182   4.602   6.262 -0.0943  0.0196 -0.2400
 5600SOL    HW118241   2.145   4.688   6.280  1.8151  0.4067  2.3493
 5600SOL    HW218242   2.259   4.620   6.208  0.2292 -0.0728  0.1889
 5601SOL     OW18243   6.853   5.633  11.580 -0.2829 -0.2257 -0.5811
 5601SOL    HW118244   6.759   5.623  11.594 -0.2904 -0.1275 -0.5633
 5601SOL    HW218245   6.863   5.626  11.485 -0.4396  0.8326 -0.6920
 5602SOL     OW18246   7.866   6.522   0.666  0.2934 -0.6189 -0.2887
 5602SOL    HW118247   7.937   6.459   0.652  0.1052 -1.2686  1.4728
 5602SOL    HW218248   7.902   6.605   0.635  1.9075 -0.8951  0.7460
 5603SOL     OW18249   4.299   6.337   9.983  0.3487 -0.3187 -1.0364
 5603SOL    HW118250   4.336   6.376  10.062 -0.3737  0.5589 -1.1137
 5603SOL    HW218251   4.238   6.403   9.950  0.9922 -0.4816 -2.6084
 5604SOL     OW18252   0.560   6.366   5.387  0.3244 -0.4430 -0.9502
 5604SOL    HW118253   0.549   6.422   5.463  0.7359 -0.6414 -0.7393
 5604SOL    HW218254   0.651   6.380   5.360  0.1572 -0.3083 -1.4567
 5605SOL     OW18255   5.360   5.410   1.495 -0.8439 -0.5996  0.0116
 5605SOL    HW118256   5.307   5.485   1.522  1.0322  0.5372  0.7212
 5605SOL    HW218257   5.387   5.430   1.405 -0.1025 -0.2644  0.3029
 5606SOL     OW18258   4.397   7.696   1.259  0.4898 -0.1009 -0.5195
 5606SOL    HW118259   4.344   7.703   1.339  0.0468  0.5813 -0.8619
 5606SOL    HW218260   4.405   7.787   1.229 -1.0428 -0.5216 -2.3419
 5607SOL     OW18261   4.882   0.692   5.114  0.0017 -0.6393  0.8584
 5607SOL    HW118262   4.818   0.758   5.089  0.6488 -0.0286  0.7927
 5607SOL    HW218263   4.854   0.613   5.067 -0.2827 -0.1829  0.2496
 5608SOL     OW18264   6.163   1.768  10.514 -0.2180  0.0547  0.2800
 5608SOL    HW118265   6.208   1.848  10.487 -0.1332 -0.1667 -0.2605
 5608SOL    HW218266   6.085   1.765  10.459 -0.6444  0.1867  0.8729
 5609SOL     OW18267   6.267   0.457   5.573  0.3759 -0.3163  0.2017
 5609SOL    HW118268   6.354   0.448   5.612  0.8958 -3.0720 -1.3054
 5609SOL    HW218269   6.277   0.421   5.484 -1.8502  1.2222 -0.7647
 5610SOL     OW18270   7.748   4.283  10.580 -0.1454  0.5287 -0.5181
 5610SOL    HW118271   7.680   4.290  10.646  1.4907  0.7406  1.2269
 5610SOL    HW218272   7.786   4.196  10.593  1.6592  1.4012  0.3836
 5611SOL     OW18273   6.667   1.239   8.439 -0.0800  0.0421  0.0135
 5611SOL    HW118274   6.673   1.188   8.358  0.2675 -0.0527  0.0973
 5611SOL    HW218275   6.647   1.328   8.411  0.0573  0.0127 -0.1783
 5612SOL     OW18276   6.059   1.378   4.092  0.3560 -0.0750 -0.4361
 5612SOL    HW118277   6.148   1.382   4.125  0.9887 -0.6969 -1.9586
 5612SOL    HW218278   6.068   1.344   4.003 -1.4062 -0.2231 -0.5987
 5613SOL     OW18279   4.213   0.101   0.239  0.1567  0.5377 -0.2140
 5613SOL    HW118280   4.293   0.051   0.221 -0.0191 -0.1029  0.6980
 5613SOL    HW218281   4.227   0.185   0.196  0.6631 -0.1198 -1.3793
 5614SOL     OW18282   2.903   1.858   8.328 -0.0953 -0.4222 -0.3292
 5614SOL    HW118283   2.983   1.888   8.370 -1.0997  0.5271  1.0108
 5614SOL    HW218284   2.854   1.813   8.398 -1.4101  0.4002 -0.6737
 5615SOL     OW18285   2.654   3.000  10.098 -0.4524 -0.0344 -0.0049
 5615SOL    HW118286   2.675   3.092  10.115  0.1759 -0.2079  0.1886
 5615SOL    HW218287   2.702   2.952  10.165 -1.1506 -0.4789  0.1845
 5616SOL     OW18288   5.745   3.672   1.735  1.0177 -0.3002 -0.4675
 5616SOL    HW118289   5.749   3.576   1.725  1.8211 -0.2539 -0.6038
 5616SOL    HW218290   5.699   3.702   1.656 -1.1043 -0.7213  0.5146
 5617SOL     OW18291   6.452   2.615   6.397  0.5045  0.0111 -0.0937
 5617SOL    HW118292   6.457   2.706   6.368  1.4077  0.0561  0.1750
 5617SOL    HW218293   6.529   2.603   6.453 -1.2462 -0.0034  2.5006
 5618SOL     OW18294   3.025   4.080   3.443 -0.0477 -0.3619  0.1257
 5618SOL    HW118295   3.067   4.008   3.490 -0.8806 -0.6884  0.3770
 5618SOL    HW218296   2.941   4.044   3.413 -1.2987  1.0259  1.7942
 5619SOL     OW18297   5.926   7.673   0.190 -0.1063  0.3055  0.0859
 5619SOL    HW118298   5.851   7.613   0.190 -0.0516  0.2353 -0.5028
 5619SOL    HW218299   6.001   7.617   0.170  0.3319  0.1099  2.0257
 5620SOL     OW18300   5.115   1.740   9.870  0.1644 -0.0367  0.0802
 5620SOL    HW118301   5.049   1.771   9.932 -0.0645  0.7551 -0.5478
 5620SOL    HW218302   5.072   1.671   9.821 -0.3114  0.6872 -0.5382
 5621SOL     OW18303   6.747   3.363   5.021  0.3297 -0.3927  0.1275
 5621SOL    HW118304   6.767   3.450   4.987  0.6418  0.3070  1.9969
 5621SOL    HW218305   6.790   3.302   4.960  1.6247  0.8135 -0.2018
 5622SOL     OW18306   0.651   0.282   0.502  0.8198  0.0652  0.3655
 5622SOL    HW118307   0.621   0.370   0.524  1.2570  0.1875  0.4758
 5622SOL    HW218308   0.570   0.232   0.487  0.5687  0.4452  0.4482
 5623SOL     OW18309   2.667   2.004   5.655 -0.2969  0.0969  0.1695
 5623SOL    HW118310   2.746   1.951   5.641 -1.5973 -2.4396  1.7020
 5623SOL    HW218311   2.667   2.066   5.582  2.3587 -0.7038 -0.6567
 5624SOL     OW18312   1.654   0.562   1.349 -0.3379  0.6465 -0.1413
 5624SOL    HW118313   1.635   0.567   1.256  2.6611 -0.2625 -0.9044
 5624SOL    HW218314   1.671   0.652   1.375  0.6214  0.7191 -0.9575
 5625SOL     OW18315   2.593   3.506   1.052  0.3998  0.8620 -0.6185
 5625SOL    HW118316   2.655   3.481   0.984  0.9403 -0.5635  0.3488
 5625SOL    HW218317   2.514   3.455   1.033 -0.1094  1.8319 -1.1976
 5626SOL     OW18318   6.045   1.171   8.980 -0.2616 -0.7118  0.4175
 5626SOL    HW118319   5.980   1.223   8.933  0.5160  0.0988  0.2195
 5626SOL    HW218320   6.107   1.143   8.913  1.2442  1.0211  0.9804
 5627SOL     OW18321   7.761   5.706   4.933 -0.1690 -0.0678  0.0919
 5627SOL    HW118322   7.813   5.746   4.863 -0.2906 -2.1125 -1.2333
 5627SOL    HW218323   7.671   5.727   4.911 -0.1757 -0.2875 -0.0928
 5628SOL     OW18324   7.894   5.701   7.157 -0.2423  0.1177 -0.4683
 5628SOL    HW118325   7.801   5.686   7.172 -0.8212  3.4496  0.1800
 5628SOL    HW218326   7.938   5.649   7.225 -1.5863 -1.4467 -0.7418
 5629SOL     OW18327   7.871   4.445  11.017  0.1286 -0.8111  0.2507
 5629SOL    HW118328   7.943   4.393  10.982  0.4586  0.5063 -1.1070
 5629SOL    HW218329   7.803   4.439  10.950  0.5337  1.2394 -0.3896
 5630SOL     OW18330   6.694   2.820   2.624 -0.1807 -0.3540 -0.0496
 5630SOL    HW118331   6.625   2.832   2.559 -0.3679 -0.9620  0.0265
 5630SOL    HW218332   6.648   2.820   2.708  0.1757  1.5177  0.1966
 5631SOL     OW18333   5.766   2.304   8.009 -0.1796  0.3636 -0.5551
 5631SOL    HW118334   5.673   2.280   8.006 -0.3827  0.9787  0.4560
 5631SOL    HW218335   5.802   2.250   8.080  0.1430  0.4501 -0.6528
 5632SOL     OW18336   4.336   3.339   6.898  0.5569  0.9401  0.7212
 5632SOL    HW118337   4.366   3.294   6.818 -1.3134 -1.5202  1.3026
 5632SOL    HW218338   4.270   3.401   6.867  1.9677  2.1969  0.0925
 5633SOL     OW18339   0.807   6.405  10.471 -0.0431  0.7020  0.3247
 5633SOL    HW118340   0.854   6.407  10.554 -0.3259  1.4913  0.4764
 5633SOL    HW218341   0.742   6.475  10.479 -1.6241 -0.7089  0.3457
 5634SOL     OW18342   4.608   0.780  10.224  0.0879 -0.1701 -0.3814
 5634SOL    HW118343   4.600   0.738  10.139  0.2032 -0.0991 -0.4264
 5634SOL    HW218344   4.533   0.747  10.274  0.1852 -0.4434 -0.4118
 5635SOL     OW18345   2.468   0.211   6.452  0.0435  0.5621  0.2437
 5635SOL    HW118346   2.464   0.303   6.425 -0.2361  0.8437  1.2206
 5635SOL    HW218347   2.466   0.213   6.547 -0.3348 -0.4786  0.2748
 5636SOL     OW18348   2.175   6.308  11.249  0.3506  0.2047 -0.5693
 5636SOL    HW118349   2.237   6.277  11.182 -0.4683 -0.7983 -0.9023
 5636SOL    HW218350   2.127   6.229  11.275 -1.2321  1.0508 -0.7986
 5637SOL     OW18351   2.964   7.169   6.767  0.2026 -0.1635  0.4308
 5637SOL    HW118352   2.954   7.153   6.674  0.4806  0.3991  0.2987
 5637SOL    HW218353   2.880   7.208   6.794  0.6502  1.0639  0.1000
 5638SOL     OW18354   2.136   6.506   7.476 -0.1797  0.6239 -0.4452
 5638SOL    HW118355   2.205   6.463   7.526 -0.5434  0.5122 -0.0276
 5638SOL    HW218356   2.060   6.504   7.535 -0.5718  0.6236 -0.9513
 5639SOL     OW18357   4.440   2.769   8.386  0.8155 -0.2463 -0.1419
 5639SOL    HW118358   4.409   2.779   8.295 -0.2128  0.2062  0.2372
 5639SOL    HW218359   4.525   2.812   8.387  0.0870  1.3137 -0.5161
 5640SOL     OW18360   2.732   2.267  11.205 -0.1571 -0.2028  0.3464
 5640SOL    HW118361   2.669   2.264  11.132 -1.1579 -0.5152  1.1931
 5640SOL    HW218362   2.694   2.210  11.271  1.8079 -1.6274  0.3154
 5641SOL     OW18363   4.616   7.291  11.011  0.4540 -0.1157 -0.2809
 5641SOL    HW118364   4.531   7.258  10.982  1.1045 -1.3225 -0.9290
 5641SOL    HW218365   4.635   7.239  11.090  1.0039 -0.5406 -0.6856
 5642SOL     OW18366   3.327   1.449   0.120 -0.0616  0.6401 -0.0792
 5642SOL    HW118367   3.309   1.543   0.113 -0.5458  0.8537  2.7876
 5642SOL    HW218368   3.250   1.407   0.081 -0.3705  1.4476 -0.3587
 5643SOL     OW18369   7.370   4.057   6.531 -0.0862  0.0839  0.4446
 5643SOL    HW118370   7.343   3.969   6.556  1.2763 -0.1659  1.1406
 5643SOL    HW218371   7.444   4.076   6.588  0.6264  1.0758 -0.7679
 5644SOL     OW18372   0.844   7.799   7.793  0.0948  0.4199 -0.3741
 5644SOL    HW118373   0.914   7.858   7.821 -1.2160  1.5287  0.6758
 5644SOL    HW218374   0.886   7.741   7.729  2.1791  0.5075  0.8231
 5645SOL     OW18375   2.062   1.559   1.582 -0.5732  0.3373  0.0409
 5645SOL    HW118376   2.058   1.492   1.650 -0.6618  1.2055  0.9173
 5645SOL    HW218377   2.039   1.640   1.628 -0.8429  0.9040 -1.0739
 5646SOL     OW18378   4.064   2.326   8.101  0.3432 -0.0013  0.1567
 5646SOL    HW118379   4.038   2.400   8.046 -0.2172  1.3302  2.1047
 5646SOL    HW218380   4.108   2.367   8.176 -0.0718 -1.6477  1.3298
 5647SOL     OW18381   5.907   6.783   5.192 -0.4323  0.0343  0.0461
 5647SOL    HW118382   5.999   6.808   5.202  0.1241 -2.0352  0.5478
 5647SOL    HW218383   5.909   6.713   5.126 -1.4042 -1.2721  1.3643
 5648SOL     OW18384   1.002   1.593  10.288 -0.1963  0.1337  0.2593
 5648SOL    HW118385   0.921   1.644  10.277  0.4499  1.4310  1.2576
 5648SOL    HW218386   1.059   1.622  10.217  0.2516  0.9946  0.9554
 5649SOL     OW18387   7.052   1.998  11.469  0.6702 -0.3450 -0.7253
 5649SOL    HW118388   7.084   2.000  11.379  1.9799 -1.4436 -0.3211
 5649SOL    HW218389   7.113   1.940  11.515  0.8525  1.2157  1.1834
 5650SOL     OW18390   7.038   2.107   1.135 -0.0882 -0.7780 -0.3230
 5650SOL    HW118391   6.951   2.146   1.140 -0.0977 -0.4957 -2.1336
 5650SOL    HW218392   7.072   2.112   1.224 -1.1892  0.8092  0.0408
 5651SOL     OW18393   0.643   6.686   5.466 -0.2874  0.0187 -0.3356
 5651SOL    HW118394   0.702   6.755   5.496 -0.0382  0.2873 -1.4020
 5651SOL    HW218395   0.601   6.654   5.546  2.2016 -1.0462  0.6536
 5652SOL     OW18396   3.892   0.835   9.260  0.6564  0.4028  0.4976
 5652SOL    HW118397   3.854   0.903   9.316  0.1968  1.7036 -1.3052
 5652SOL    HW218398   3.910   0.880   9.177  0.7598 -1.5701 -0.6010
 5653SOL     OW18399   3.666   7.593   5.422 -0.0591  0.6503 -0.5499
 5653SOL    HW118400   3.730   7.665   5.419 -1.4109  1.8934 -0.7598
 5653SOL    HW218401   3.716   7.516   5.395  1.2832  1.6285 -0.9962
 5654SOL     OW18402   4.742   2.301   0.648  0.4257 -0.1232 -0.0781
 5654SOL    HW118403   4.737   2.372   0.585  2.6414 -0.1164 -0.3182
 5654SOL    HW218404   4.758   2.344   0.732 -0.4812 -0.2397  0.1630
 5655SOL     OW18405   7.359   5.747  11.644  0.1898 -0.0323 -0.3986
 5655SOL    HW118406   7.371   5.776  11.553 -1.4358  2.0172 -0.0208
 5655SOL    HW218407   7.406   5.812  11.696 -1.1607  0.3736  0.3457
 5656SOL     OW18408   1.508   7.322  10.812 -0.2311 -0.1587 -0.3815
 5656SOL    HW118409   1.510   7.317  10.716  0.0506  1.5593 -0.5040
 5656SOL    HW218410   1.563   7.397  10.833 -2.0525  0.8930  0.9702
 5657SOL     OW18411   6.815   0.409   3.183 -0.1608  0.2489 -0.4985
 5657SOL    HW118412   6.861   0.489   3.209 -0.1173 -0.0437  0.3735
 5657SOL    HW218413   6.724   0.436   3.175  0.0607  0.7080 -1.6900
 5658SOL     OW18414   7.198   2.574   1.712  0.6441  0.1808 -0.0157
 5658SOL    HW118415   7.285   2.536   1.700  0.6479 -0.1366  0.9784
 5658SOL    HW218416   7.213   2.668   1.715  0.7363  0.2505 -1.5775
 5659SOL     OW18417   3.691   0.906   5.202 -0.2933  0.3204  0.0152
 5659SOL    HW118418   3.729   0.986   5.166  1.5307 -1.2135 -1.7697
 5659SOL    HW218419   3.663   0.930   5.290 -0.9821  3.1995 -0.8764
 5660SOL     OW18420   3.885   5.570   5.800 -0.2762  0.4737  0.1023
 5660SOL    HW118421   3.799   5.532   5.815 -0.8537  0.1764 -3.1934
 5660SOL    HW218422   3.946   5.509   5.842 -1.5552  0.0542  1.4601
 5661SOL     OW18423   3.667   3.126   7.290  0.0237 -0.0829  0.4376
 5661SOL    HW118424   3.599   3.131   7.223 -0.2832  0.3900  0.7776
 5661SOL    HW218425   3.744   3.093   7.244  0.2914  1.7371 -0.5214
 5662SOL     OW18426   3.775   4.101   2.789  0.0063  0.0707  0.1217
 5662SOL    HW118427   3.715   4.175   2.799 -2.4215 -1.3354 -2.4483
 5662SOL    HW218428   3.838   4.129   2.723 -2.1947 -0.6846 -2.4815
 5663SOL     OW18429   0.737   7.636  12.251 -0.1751  0.8709  0.2353
 5663SOL    HW118430   0.703   7.578  12.183  0.2239 -1.7143  2.1044
 5663SOL    HW218431   0.665   7.645  12.313 -0.2634  2.5425 -0.0700
 5664SOL     OW18432   1.883   5.531   1.298  0.3038 -0.1915 -0.1000
 5664SOL    HW118433   1.954   5.595   1.309 -0.3463  0.3631  1.0074
 5664SOL    HW218434   1.867   5.497   1.386 -1.8794  0.8864 -0.0154
 5665SOL     OW18435   5.375   4.786   7.152 -0.1311  0.2041 -0.1153
 5665SOL    HW118436   5.440   4.834   7.101 -0.7860  0.7510 -0.4516
 5665SOL    HW218437   5.382   4.696   7.119  0.4465  0.2535 -0.1487
 5666SOL     OW18438   1.491   0.011  10.140  0.5938 -0.2783 -0.0135
 5666SOL    HW118439   1.472  -0.062  10.081  0.1851 -0.3827  0.2391
 5666SOL    HW218440   1.478  -0.025  10.228  1.4616 -0.1969  0.1537
 5667SOL     OW18441   5.525   7.396   2.961  0.1821 -0.2104 -0.8569
 5667SOL    HW118442   5.550   7.487   2.977  1.1200 -0.5645 -0.2025
 5667SOL    HW218443   5.562   7.376   2.875  1.8144 -0.5790 -0.1055
 5668SOL     OW18444   5.010   3.323   9.709 -0.2853  0.6316  0.0100
 5668SOL    HW118445   5.012   3.418   9.708  1.0093  0.6416 -1.7479
 5668SOL    HW218446   4.920   3.301   9.736 -0.7523  2.3350 -0.0357
 5669SOL     OW18447   7.773   2.068   4.131 -0.1247 -0.0088  0.6604
 5669SOL    HW118448   7.823   2.059   4.212  1.4757 -0.1197 -0.2960
 5669SOL    HW218449   7.818   2.137   4.083 -2.3478  1.6181  0.7594
 5670SOL     OW18450   5.157   2.193   7.809 -0.6798 -0.2839  0.0978
 5670SOL    HW118451   5.098   2.143   7.865 -1.1407 -0.3270 -0.4209
 5670SOL    HW218452   5.111   2.200   7.725  0.0188 -0.2616 -0.2942
 5671SOL     OW18453   6.156   1.904  10.020 -0.0080 -0.1552  0.5740
 5671SOL    HW118454   6.179   1.996  10.008  0.7869 -0.3682  0.3712
 5671SOL    HW218455   6.079   1.891   9.965 -1.0222  0.7351  1.7364
 5672SOL     OW18456   0.162   7.590   4.968  0.3666  0.0102 -0.1640
 5672SOL    HW118457   0.172   7.525   5.039 -1.5289 -0.3668 -0.1958
 5672SOL    HW218458   0.093   7.648   4.999  0.8355  0.9871 -0.9162
 5673SOL     OW18459   5.447   5.341   7.238 -0.0427  0.1123 -0.5265
 5673SOL    HW118460   5.387   5.397   7.288  1.1409  0.2884  0.7638
 5673SOL    HW218461   5.506   5.304   7.304  1.0345 -0.3423 -1.7037
 5674SOL     OW18462   0.069   4.279   6.649  0.6971  0.2220 -0.2132
 5674SOL    HW118463   0.026   4.362   6.627  0.0125 -0.2405 -0.6531
 5674SOL    HW218464  -0.002   4.216   6.656  0.9533  0.1227  2.4952
 5675SOL     OW18465   1.291   5.537   7.419  0.0494  0.3067  0.3248
 5675SOL    HW118466   1.305   5.547   7.513  2.4906  1.6135 -0.0747
 5675SOL    HW218467   1.376   5.559   7.381 -1.4849  2.2304 -2.3203
 5676SOL     OW18468   3.228   7.292  11.723 -0.0927 -0.0619 -0.1163
 5676SOL    HW118469   3.311   7.258  11.758 -1.0812  0.0775  2.5161
 5676SOL    HW218470   3.196   7.222  11.666  0.0005 -1.8056  1.8595
 5677SOL     OW18471   0.787   5.893   2.388  0.2880 -0.3229  0.0195
 5677SOL    HW118472   0.831   5.846   2.318  1.3378 -0.0410  0.4648
 5677SOL    HW218473   0.807   5.843   2.467 -3.3107 -2.3413 -0.1553
 5678SOL     OW18474   6.850   7.688  10.414 -0.4647 -0.1895  0.1629
 5678SOL    HW118475   6.858   7.665  10.507  1.4349  2.1054  0.6656
 5678SOL    HW218476   6.843   7.603  10.369  1.5507 -1.5446  2.1645
 5679SOL     OW18477   0.542   3.972   1.625 -0.2743  0.6276 -0.3362
 5679SOL    HW118478   0.589   4.042   1.580 -0.7256  0.7986 -0.5428
 5679SOL    HW218479   0.573   3.891   1.583 -0.5950  0.7759 -0.8644
 5680SOL     OW18480   2.224   3.437   8.081 -0.5443 -0.2491  0.2493
 5680SOL    HW118481   2.243   3.373   8.150 -0.3648  0.0549  0.4822
 5680SOL    HW218482   2.307   3.484   8.068 -0.8951  0.4839  0.6409
 5681SOL     OW18483   6.291   6.138   1.086 -0.2916  0.4541 -0.1975
 5681SOL    HW118484   6.356   6.189   1.038  0.6894 -0.8824 -0.3629
 5681SOL    HW218485   6.287   6.054   1.040  0.4466 -0.7591  1.8065
 5682SOL     OW18486   0.328   7.110   8.756 -0.2088  0.1871 -0.2085
 5682SOL    HW118487   0.343   7.201   8.781  2.9091 -0.8340  2.3801
 5682SOL    HW218488   0.415   7.077   8.735 -1.4350 -1.9344 -2.4586
 5683SOL     OW18489   5.288   1.143   1.324 -0.4514 -0.4742  0.7588
 5683SOL    HW118490   5.215   1.118   1.380  0.7939 -2.3113  1.6576
 5683SOL    HW218491   5.343   1.198   1.380 -1.2178  1.1046  0.0108
 5684SOL     OW18492   5.770   5.955  10.447 -0.0018  0.3766  0.0546
 5684SOL    HW118493   5.789   5.884  10.510 -0.3794 -0.1746 -0.4390
 5684SOL    HW218494   5.752   5.909  10.365  0.7101  1.1034 -0.5192
 5685SOL     OW18495   4.262   1.101   0.571  0.7329  0.2029 -0.1418
 5685SOL    HW118496   4.334   1.157   0.601  0.3603  0.9396 -0.5957
 5685SOL    HW218497   4.198   1.106   0.641  0.1830  1.3271 -0.6998
 5686SOL     OW18498   6.489   0.641   6.729 -0.0035 -0.1133 -0.4099
 5686SOL    HW118499   6.573   0.599   6.709  0.1497  0.1639 -0.3514
 5686SOL    HW218500   6.511   0.733   6.745 -0.4187  0.1141 -1.1212
 5687SOL     OW18501   3.143   3.180   9.587 -0.0320  0.2216  0.2389
 5687SOL    HW118502   3.210   3.200   9.653 -0.0518 -0.2895  0.4234
 5687SOL    HW218503   3.182   3.110   9.534  0.1842  0.9765 -0.6187
 5688SOL     OW18504   1.357   1.503   1.738 -0.2783 -0.0531  0.3158
 5688SOL    HW118505   1.412   1.451   1.797 -0.2820  1.1345  1.4141
 5688SOL    HW218506   1.305   1.438   1.691  1.5439 -1.1675 -0.2540
 5689SOL     OW18507   7.441   4.848   8.503 -0.5317 -0.5991 -0.2494
 5689SOL    HW118508   7.437   4.932   8.459 -0.6851 -0.4434  0.0620
 5689SOL    HW218509   7.376   4.854   8.573 -0.2615 -0.8328  0.0220
 5690SOL     OW18510   0.532   6.503   9.855  0.0225  0.3442  0.0911
 5690SOL    HW118511   0.572   6.438   9.913  0.8366 -0.7980 -1.6416
 5690SOL    HW218512   0.555   6.587   9.894 -0.4733 -0.3662  2.0363
 5691SOL     OW18513   2.971   1.638   0.017 -0.2739  0.3535  0.2155
 5691SOL    HW118514   2.998   1.619  -0.073  0.7486  1.4362  0.2720
 5691SOL    HW218515   2.977   1.733   0.024 -0.8900  0.3267  1.2713
 5692SOL     OW18516   3.282   1.717   6.947  0.2320  0.6629  0.3737
 5692SOL    HW118517   3.369   1.693   6.915 -0.0270  1.1089 -0.7052
 5692SOL    HW218518   3.267   1.660   7.022  1.1300  0.0329  0.0837
 5693SOL     OW18519   3.794   4.132   3.408 -0.0055 -0.1695 -0.2698
 5693SOL    HW118520   3.741   4.084   3.344 -2.1971  0.5783  0.8889
 5693SOL    HW218521   3.767   4.098   3.493  0.8024  0.8010  0.4040
 5694SOL     OW18522   6.328   4.334   4.163  0.1602 -0.4322  0.3349
 5694SOL    HW118523   6.356   4.272   4.230 -0.5379  0.3434  1.3792
 5694SOL    HW218524   6.258   4.289   4.116  0.8486 -1.0907 -0.0767
 5695SOL     OW18525   2.466   6.320   1.031 -0.5328 -0.2125 -0.2788
 5695SOL    HW118526   2.490   6.341   0.940 -2.2287  0.1838 -0.6858
 5695SOL    HW218527   2.434   6.230   1.027  2.5416 -1.4484  0.6226
 5696SOL     OW18528   2.719   6.524   8.828 -0.2111  0.3093 -0.2948
 5696SOL    HW118529   2.630   6.559   8.818 -0.3186  0.3212  0.6519
 5696SOL    HW218530   2.713   6.464   8.902 -0.0269 -1.7178 -1.8256
 5697SOL     OW18531   0.978   3.476   5.595 -0.1988  0.0389  0.4823
 5697SOL    HW118532   0.978   3.389   5.633  1.9699 -0.5110 -0.6077
 5697SOL    HW218533   0.987   3.461   5.501 -0.0817  1.4369  0.2517
 5698SOL     OW18534   2.249   5.494   5.092 -0.2555  0.2255  0.7804
 5698SOL    HW118535   2.305   5.436   5.144  0.0798 -0.3481 -0.1989
 5698SOL    HW218536   2.227   5.443   5.014 -1.3366  0.8110  0.6794
 5699SOL     OW18537   1.457   7.590   0.511 -0.1318  0.2786 -0.0913
 5699SOL    HW118538   1.438   7.510   0.461  1.7725 -0.2659 -0.0221
 5699SOL    HW218539   1.491   7.558   0.595 -2.5975  1.1850  1.3599
 5700SOL     OW18540   7.619   0.243   3.921 -0.3284  0.1346  0.2152
 5700SOL    HW118541   7.704   0.276   3.892 -0.3198  1.0144  1.1908
 5700SOL    HW218542   7.559   0.266   3.850  0.0488  0.4737  0.0015
 5701SOL     OW18543   2.737   3.538   1.727  0.8025 -0.2170 -0.2660
 5701SOL    HW118544   2.706   3.484   1.654 -0.4665  0.0506  0.0615
 5701SOL    HW218545   2.796   3.480   1.776  0.7548 -0.7672 -0.8451
 5702SOL     OW18546   1.893   3.009   0.223  0.3612  0.5860 -0.7036
 5702SOL    HW118547   1.857   3.093   0.249 -2.8677 -0.7041 -0.5322
 5702SOL    HW218548   1.839   2.981   0.149  1.7177 -1.0763 -1.1302
 5703SOL     OW18549   7.780   3.634   3.047 -0.0236 -0.4356 -0.0679
 5703SOL    HW118550   7.730   3.655   3.126 -0.0079 -2.1628  0.4497
 5703SOL    HW218551   7.739   3.555   3.013 -0.8255  0.9363 -2.5516
 5704SOL     OW18552   7.580   5.825   9.025 -0.1149  0.1355 -0.0103
 5704SOL    HW118553   7.557   5.734   9.009  0.4451 -0.2479  1.2306
 5704SOL    HW218554   7.537   5.846   9.108  1.5399  0.3076  0.8378
 5705SOL     OW18555   2.974   4.529   7.135 -0.0456  0.1434 -0.0835
 5705SOL    HW118556   3.024   4.470   7.191 -2.6206 -2.3278 -0.1653
 5705SOL    HW218557   2.892   4.544   7.182 -1.1008  0.3533 -1.8892
 5706SOL     OW18558   2.316   2.936   3.265 -0.1089  0.2689 -0.2229
 5706SOL    HW118559   2.254   3.008   3.274  1.2760  1.5221 -0.1655
 5706SOL    HW218560   2.338   2.935   3.172  0.5135  0.5053 -0.0865
 5707SOL     OW18561   1.870   0.936   9.207  0.1439 -0.3519 -0.2607
 5707SOL    HW118562   1.781   0.907   9.188 -0.0504 -0.5186  0.8762
 5707SOL    HW218563   1.916   0.927   9.123 -0.7532 -0.7967 -0.7209
 5708SOL     OW18564   0.661   1.619   6.833 -0.0184  0.7599 -0.2153
 5708SOL    HW118565   0.721   1.560   6.787 -1.2933 -0.2280 -0.6725
 5708SOL    HW218566   0.692   1.707   6.810  1.7531  0.2991  0.2625
 5709SOL     OW18567   4.718   4.285   9.838  0.4634  0.2038 -0.1651
 5709SOL    HW118568   4.642   4.254   9.887  1.5490 -2.2812  0.1322
 5709SOL    HW218569   4.729   4.219   9.769  1.8289  0.9863 -0.7192
 5710SOL     OW18570   2.189   0.335   0.697  0.3664 -0.2317  0.4566
 5710SOL    HW118571   2.231   0.341   0.783  1.6630 -1.8956 -0.0105
 5710SOL    HW218572   2.184   0.241   0.679 -0.3891  0.0613 -1.0588
 5711SOL     OW18573   0.548   2.648  11.583  0.1644 -0.0334 -0.6890
 5711SOL    HW118574   0.591   2.689  11.658 -0.1367 -0.9586  0.0124
 5711SOL    HW218575   0.619   2.614  11.530  0.3400 -0.5510 -0.1249
 5712SOL     OW18576   6.767   6.934   8.341 -0.2491  0.0558 -0.7890
 5712SOL    HW118577   6.818   6.858   8.367 -1.1643 -0.3843 -0.2284
 5712SOL    HW218578   6.829   6.991   8.296  0.6176 -0.6695 -0.5256
 5713SOL     OW18579   6.935   7.277  12.234 -0.5324 -0.0895  0.1584
 5713SOL    HW118580   6.979   7.356  12.265  0.2293 -0.2701 -0.4356
 5713SOL    HW218581   6.996   7.206  12.253  0.1397 -0.1659 -2.0215
 5714SOL     OW18582   1.755   3.968   2.220  0.3799  0.7880 -0.1870
 5714SOL    HW118583   1.825   3.938   2.163  1.7723  2.3749  0.6182
 5714SOL    HW218584   1.737   3.893   2.277 -0.4438 -0.5211 -2.0625
 5715SOL     OW18585   3.457   0.031   7.955  0.2298 -0.2720 -0.7862
 5715SOL    HW118586   3.437  -0.008   8.040 -0.6028 -0.6272 -1.1357
 5715SOL    HW218587   3.543  -0.004   7.932  0.9715  0.6970  0.4049
 5716SOL     OW18588   2.835   6.062   1.950  0.2647  0.1114  0.7340
 5716SOL    HW118589   2.784   6.139   1.926  1.5140  0.7977  0.1804
 5716SOL    HW218590   2.856   6.076   2.043  0.6854  0.5710  0.5760
 5717SOL     OW18591   2.679   7.061  10.588  0.2261 -0.2186  0.1911
 5717SOL    HW118592   2.760   7.065  10.639 -0.4060  0.3660  1.1863
 5717SOL    HW218593   2.663   7.152  10.560 -0.5434 -0.1678  0.7599
 5718SOL     OW18594   7.148   5.797   2.743 -0.1077 -0.4082 -0.3858
 5718SOL    HW118595   7.175   5.706   2.730  1.0147 -0.5150  1.9842
 5718SOL    HW218596   7.150   5.809   2.838 -1.1062  1.8597 -0.5726
 5719SOL     OW18597   0.756   1.149   3.575 -0.3024  0.0104  0.4642
 5719SOL    HW118598   0.808   1.079   3.535  0.8755  0.9329  0.3228
 5719SOL    HW218599   0.668   1.136   3.541  0.6421  0.8251 -2.6386
 5720SOL     OW18600   2.542   0.772   3.493 -0.2037 -0.1366 -0.1587
 5720SOL    HW118601   2.560   0.750   3.401 -1.1737  0.3620 -0.4736
 5720SOL    HW218602   2.487   0.700   3.524  1.0162 -0.8808  0.3733
 5721SOL     OW18603   0.665   5.327   1.347 -0.5738 -0.0296 -0.0018
 5721SOL    HW118604   0.591   5.387   1.339 -0.2644  0.1463 -2.1228
 5721SOL    HW218605   0.630   5.252   1.396 -2.1102  0.1374 -0.7775
 5722SOL     OW18606   0.966   1.959   8.717  0.1195  0.5804  0.3549
 5722SOL    HW118607   0.989   1.867   8.702 -0.4736  0.6473 -1.2069
 5722SOL    HW218608   0.896   1.955   8.782 -2.8970 -0.5234 -2.6508
 5723SOL     OW18609   3.812   6.994  11.867  0.1610  0.2909  0.0404
 5723SOL    HW118610   3.831   6.954  11.781 -0.0875 -0.7582  0.4511
 5723SOL    HW218611   3.730   6.953  11.895  1.3769 -1.1117  1.7781
 5724SOL     OW18612   4.882   0.394   6.268  0.3548 -0.1011  0.2454
 5724SOL    HW118613   4.789   0.377   6.284  0.0543  1.0168 -0.2411
 5724SOL    HW218614   4.919   0.307   6.250 -0.8860 -0.4155 -1.0194
 5725SOL     OW18615   6.199   2.168   7.633  0.7784  0.3565 -0.3562
 5725SOL    HW118616   6.237   2.225   7.700  1.3105  0.8723 -1.0777
 5725SOL    HW218617   6.209   2.080   7.669  0.7694  0.6438  0.3775
 5726SOL     OW18618   6.631   0.782   3.820  0.5664 -0.4496 -0.1277
 5726SOL    HW118619   6.599   0.819   3.738  1.0272  1.6285  0.5692
 5726SOL    HW218620   6.554   0.775   3.876  0.4669 -0.6217 -0.2847
 5727SOL     OW18621   1.887   0.267   0.911 -0.1353  0.1669  0.4370
 5727SOL    HW118622   1.906   0.183   0.870 -0.5704 -0.6553  1.8702
 5727SOL    HW218623   1.970   0.294   0.951 -0.0089  0.4126  0.0201
 5728SOL     OW18624   3.410   3.847   3.318 -0.3982  0.6452  0.0741
 5728SOL    HW118625   3.479   3.881   3.262 -0.3737  0.6228  0.0904
 5728SOL    HW218626   3.456   3.796   3.385 -0.4525  0.3012 -0.1461
 5729SOL     OW18627   5.817   3.382   6.331  0.0960  0.4127  0.6071
 5729SOL    HW118628   5.801   3.420   6.245 -0.0576  1.1330  0.9429
 5729SOL    HW218629   5.783   3.448   6.393  0.5349  0.0726  1.2211
 5730SOL     OW18630   1.543   5.133   0.914  0.1412 -0.0391  0.6025
 5730SOL    HW118631   1.451   5.121   0.939  0.6904 -0.4401  2.6541
 5730SOL    HW218632   1.544   5.214   0.864 -1.3506 -0.0855  0.4477
 5731SOL     OW18633   3.012   1.559   4.366  0.8932  0.4293 -0.4716
 5731SOL    HW118634   3.100   1.553   4.329  0.7459 -1.1523 -0.6495
 5731SOL    HW218635   3.005   1.483   4.425 -0.0697  0.9809  0.1640
 5732SOL     OW18636   2.424   4.950  10.662  0.0562 -0.5179 -0.0522
 5732SOL    HW118637   2.485   4.878  10.682  1.8407  1.1357  0.7784
 5732SOL    HW218638   2.385   4.925  10.578 -0.9467 -3.4000  1.1411
 5733SOL     OW18639   1.202   4.467   6.558  0.3003  0.6251 -0.1173
 5733SOL    HW118640   1.235   4.379   6.542  1.8446  0.8777  1.3218
 5733SOL    HW218641   1.120   4.472   6.509  1.1430 -0.9318 -1.7920
 5734SOL     OW18642   3.364   4.735   0.299 -0.0355 -0.3614 -0.5196
 5734SOL    HW118643   3.391   4.790   0.373  1.2995  1.0171 -1.9499
 5734SOL    HW218644   3.403   4.650   0.316 -0.0243 -0.1643  0.5096
 5735SOL     OW18645   6.991   4.014   8.699 -0.1912 -0.2738  0.5079
 5735SOL    HW118646   7.065   4.002   8.758 -0.3363  0.6655  0.8904
 5735SOL    HW218647   6.927   3.948   8.726  0.4541 -1.0227  0.2392
 5736SOL     OW18648   6.083   0.277   2.272  0.5228  0.0894  0.5248
 5736SOL    HW118649   6.086   0.357   2.324 -0.5403  0.0905  0.6059
 5736SOL    HW218650   5.996   0.241   2.289 -0.0872  0.3785 -1.6996
 5737SOL     OW18651   3.360   2.728   9.952  0.2099  0.2339  0.5101
 5737SOL    HW118652   3.313   2.768  10.026 -1.1672 -0.2447 -0.0804
 5737SOL    HW218653   3.447   2.708   9.988 -0.2174  0.5892  1.8167
 5738SOL     OW18654   7.482   0.097   9.831 -0.0022  0.3985 -0.0783
 5738SOL    HW118655   7.502   0.038   9.758 -1.0924  1.1214 -1.0194
 5738SOL    HW218656   7.471   0.040   9.907  2.7272 -0.2541 -0.0757
 5739SOL     OW18657   0.894   2.109   0.822  0.1737 -0.0991  0.1808
 5739SOL    HW118658   0.892   2.078   0.913  0.9649 -1.3936 -0.2134
 5739SOL    HW218659   0.802   2.114   0.797 -0.1599  2.0216  1.5850
 5740SOL     OW18660   5.643   3.051   5.840 -0.4232  0.2068  0.3026
 5740SOL    HW118661   5.556   3.054   5.881 -1.1634  1.4188 -1.2866
 5740SOL    HW218662   5.680   3.137   5.856  0.7251 -0.4461  1.3641
 5741SOL     OW18663   2.395   3.079   8.885 -0.0220 -0.6714  0.4046
 5741SOL    HW118664   2.445   3.143   8.835  1.3335 -0.5644  1.8410
 5741SOL    HW218665   2.371   3.012   8.821  0.4092  0.1695 -0.6683
 5742SOL     OW18666   0.687   5.796   0.632  0.6452 -0.2297 -0.4570
 5742SOL    HW118667   0.695   5.720   0.574  1.6643  0.9473 -1.9402
 5742SOL    HW218668   0.742   5.775   0.707  0.8629 -0.9907 -0.8199
 5743SOL     OW18669   7.716   4.966   3.247 -0.6051 -0.2192 -0.4353
 5743SOL    HW118670   7.778   5.035   3.273 -1.3311  0.4940 -0.5552
 5743SOL    HW218671   7.728   4.958   3.153 -0.7710  0.0016 -0.4767
 5744SOL     OW18672   3.082   0.617   2.292  0.6347  0.1720  0.5199
 5744SOL    HW118673   3.054   0.577   2.374  3.5648 -0.3270  1.3911
 5744SOL    HW218674   3.003   0.620   2.239 -0.7054 -2.5635  2.1282
 5745SOL     OW18675   6.570   1.920   1.251 -0.0367  0.5340 -0.8988
 5745SOL    HW118676   6.634   1.873   1.304  0.2006  0.4640 -1.2463
 5745SOL    HW218677   6.606   2.008   1.241 -0.3296  0.6973 -0.5111
 5746SOL     OW18678   7.093   2.212  10.138 -0.1636  0.1339 -0.3890
 5746SOL    HW118679   7.004   2.210  10.104 -0.6115  1.6699  0.5486
 5746SOL    HW218680   7.115   2.305  10.140  1.8777 -0.2872 -1.5895
 5747SOL     OW18681   6.332   6.492   7.899  0.1017  0.0245  0.4285
 5747SOL    HW118682   6.271   6.560   7.925 -0.4705  0.0690 -0.9880
 5747SOL    HW218683   6.404   6.539   7.857 -0.5396 -0.2506 -1.0260
 5748SOL     OW18684   4.208   1.088  11.934 -0.0927 -0.0938  0.2238
 5748SOL    HW118685   4.275   1.026  11.962  0.3206  0.2547  0.0168
 5748SOL    HW218686   4.232   1.110  11.844 -0.8773 -0.4929 -0.0891
 5749SOL     OW18687   5.366   0.329   4.223  0.0373 -0.1128 -0.7171
 5749SOL    HW118688   5.380   0.402   4.163  1.1643 -0.0101 -0.3622
 5749SOL    HW218689   5.279   0.343   4.260  1.3909  2.7988  1.7017
 5750SOL     OW18690   7.393   2.979   4.644  0.4851  0.5338  0.1130
 5750SOL    HW118691   7.307   2.938   4.630 -0.9269  3.4410 -0.6205
 5750SOL    HW218692   7.377   3.045   4.711  1.9211  1.6943 -0.6292
 5751SOL     OW18693   5.115   3.807   2.772  0.0285  0.5170 -0.4189
 5751SOL    HW118694   5.176   3.808   2.698  1.4284  0.7572  0.6892
 5751SOL    HW218695   5.148   3.875   2.831 -1.5945  0.9663  0.0236
 5752SOL     OW18696   3.178   2.271   0.950  0.2350 -0.4681  0.2207
 5752SOL    HW118697   3.166   2.242   1.040  0.5598  0.6445  0.6278
 5752SOL    HW218698   3.100   2.238   0.905  0.0572 -1.0098  0.8989
 5753SOL     OW18699   7.761   2.672   1.658 -0.0258  0.5767  0.7733
 5753SOL    HW118700   7.700   2.652   1.587 -0.5628 -0.2785  1.4529
 5753SOL    HW218701   7.818   2.595   1.665  0.9690  1.2506  0.3319
 5754SOL     OW18702   5.913   5.310   2.036 -0.0062  0.1483 -0.2953
 5754SOL    HW118703   5.923   5.286   1.944 -0.4182 -1.2320 -0.0046
 5754SOL    HW218704   5.989   5.365   2.055  0.9715 -0.8976 -1.0332
 5755SOL     OW18705   1.814   1.885   3.248 -0.1982  0.1212 -0.3271
 5755SOL    HW118706   1.868   1.836   3.186 -1.9604 -1.5600 -0.6464
 5755SOL    HW218707   1.788   1.964   3.200  0.4532  0.0476 -0.8208
 5756SOL     OW18708   7.872   4.751   1.896  0.4296 -0.1304 -0.5839
 5756SOL    HW118709   7.828   4.834   1.877  1.2909 -0.1395 -3.0422
 5756SOL    HW218710   7.810   4.684   1.865  0.6132 -0.3028 -0.5799
 5757SOL     OW18711   2.164   2.272  10.693  0.3545  0.3829  0.0438
 5757SOL    HW118712   2.107   2.343  10.663  0.2356 -0.5249 -2.0499
 5757SOL    HW218713   2.253   2.308  10.685  0.2180  0.9734  0.9973
 5758SOL     OW18714   3.763   7.228  12.049  0.0737 -0.1161 -0.0890
 5758SOL    HW118715   3.787   7.153  11.995  0.3327  0.3454 -0.6221
 5758SOL    HW218716   3.828   7.228  12.120  1.6294  1.0241 -1.4274
 5759SOL     OW18717   6.574   3.596   9.050  0.0417  0.1342 -0.1320
 5759SOL    HW118718   6.636   3.601   9.122 -0.0029 -1.7689  0.0960
 5759SOL    HW218719   6.489   3.616   9.089  0.3273  1.4975 -0.1841
 5760SOL     OW18720   7.675   1.598   0.243 -0.1645 -0.5696 -0.1651
 5760SOL    HW118721   7.672   1.655   0.166 -2.1165 -0.7252 -0.2640
 5760SOL    HW218722   7.729   1.524   0.216  1.2334  0.5228 -0.5130
 5761SOL     OW18723   6.234   4.908   9.187 -0.2209  0.0208  0.0627
 5761SOL    HW118724   6.245   5.000   9.213  1.4035  0.0085 -0.4959
 5761SOL    HW218725   6.140   4.892   9.195 -0.5438  1.7593  0.0874
 5762SOL     OW18726   2.697   0.570   8.051 -0.1107 -0.1459  0.4110
 5762SOL    HW118727   2.630   0.624   8.093 -1.1295  0.6234 -2.0278
 5762SOL    HW218728   2.705   0.493   8.108 -3.4758 -0.5197  0.5733
 5763SOL     OW18729   5.910   3.360   4.284 -0.7774  0.2338 -0.2706
 5763SOL    HW118730   5.946   3.352   4.196 -0.7950  0.7433 -0.3296
 5763SOL    HW218731   5.817   3.341   4.274 -0.6691 -0.3252 -0.2507
 5764SOL     OW18732   5.188   0.115   6.940  0.0384 -0.0058 -0.1070
 5764SOL    HW118733   5.164   0.197   6.982 -0.3852  0.4460 -1.1850
 5764SOL    HW218734   5.117   0.055   6.962 -1.4738  0.9144 -2.0961
 5765SOL     OW18735   3.513   2.580   4.882 -0.0852 -0.4511 -0.0324
 5765SOL    HW118736   3.540   2.651   4.940 -1.0136  0.8769 -1.1802
 5765SOL    HW218737   3.422   2.562   4.908  0.2905 -1.5793  0.5722
 5766SOL     OW18738   3.611   5.094  12.101 -0.3559 -0.0968  0.8584
 5766SOL    HW118739   3.604   5.159  12.031 -0.4761 -1.3145 -0.3107
 5766SOL    HW218740   3.578   5.013  12.062  0.9932 -1.1768  1.8509
 5767SOL     OW18741   5.289   7.472  10.435  0.2303  0.5658 -0.3284
 5767SOL    HW118742   5.362   7.420  10.469 -0.8887 -1.3729 -0.7737
 5767SOL    HW218743   5.257   7.520  10.511  1.5124  0.9228  0.0158
 5768SOL     OW18744   3.698   2.082  12.298 -0.4883 -0.2745 -0.3880
 5768SOL    HW118745   3.679   2.038  12.381  1.3563 -1.8284 -0.7175
 5768SOL    HW218746   3.793   2.076  12.289 -0.6158  0.1206 -2.4753
 5769SOL     OW18747   4.317   0.898   9.097  0.1647  0.4011 -0.3200
 5769SOL    HW118748   4.398   0.848   9.106  0.5938  1.1725  0.1281
 5769SOL    HW218749   4.328   0.973   9.155 -0.6819  0.7555 -0.6068
 5770SOL     OW18750   3.069   1.340   1.169  0.1973 -0.1219 -0.2417
 5770SOL    HW118751   2.974   1.328   1.173  0.3367 -1.3084 -0.0413
 5770SOL    HW218752   3.100   1.307   1.253  0.7614  0.6562 -0.1335
 5771SOL     OW18753   6.334   4.429   2.435  0.0971 -0.4272 -0.0707
 5771SOL    HW118754   6.252   4.413   2.388 -1.0049  0.3635  1.4742
 5771SOL    HW218755   6.333   4.523   2.454  2.1019 -0.1220 -1.2760
 5772SOL     OW18756   4.992   2.829   4.986  0.5501  0.5530 -0.2533
 5772SOL    HW118757   5.081   2.863   4.974  1.4319 -1.6587 -0.5577
 5772SOL    HW218758   4.935   2.903   4.966  2.2986  2.0813  0.0662
 5773SOL     OW18759   2.343   7.025   6.002  0.1887 -0.5329  0.4451
 5773SOL    HW118760   2.290   6.962   6.051 -0.3676 -0.5077 -0.1068
 5773SOL    HW218761   2.400   6.972   5.947  0.8750 -0.5620  1.1734
 5774SOL     OW18762   5.280   4.205   9.096 -0.1212  0.0024  0.0972
 5774SOL    HW118763   5.322   4.175   9.177  0.1002  1.2532  0.4769
 5774SOL    HW218764   5.337   4.174   9.026  0.0763 -0.4763  0.4668
 5775SOL     OW18765   2.443   2.254   1.281  0.3220  0.3905 -0.0690
 5775SOL    HW118766   2.504   2.181   1.291  3.0725  1.9861 -3.2819
 5775SOL    HW218767   2.490   2.330   1.315  0.7625  1.8266 -3.4396
 5776SOL     OW18768   0.689   2.108  11.365 -0.5998  0.2890  0.8942
 5776SOL    HW118769   0.711   2.157  11.286 -0.8088 -0.9812  0.0257
 5776SOL    HW218770   0.603   2.140  11.391 -2.0987 -1.6171 -1.3665
 5777SOL     OW18771   5.592   0.773  10.744  0.1841 -0.0497 -0.7013
 5777SOL    HW118772   5.534   0.698  10.735 -1.6260  0.8319  2.2502
 5777SOL    HW218773   5.668   0.740  10.793 -2.2468  0.5239  3.9651
 5778SOL     OW18774   4.943   3.568   7.561  0.3313 -0.3549  0.1080
 5778SOL    HW118775   4.936   3.605   7.473  0.4304  0.1100  0.2945
 5778SOL    HW218776   4.887   3.491   7.558  0.1136 -0.1887 -0.2839
 5779SOL     OW18777   1.302   2.898   2.136  0.0765 -0.1321 -0.1153
 5779SOL    HW118778   1.368   2.849   2.088  1.7103  0.9722  0.8915
 5779SOL    HW218779   1.352   2.961   2.188 -1.7725  0.6711  0.7919
 5780SOL     OW18780   7.674   6.193   3.194  0.2999 -0.1908  0.0259
 5780SOL    HW118781   7.729   6.271   3.186  1.2394 -0.8878 -0.4768
 5780SOL    HW218782   7.659   6.165   3.104  3.8727 -3.2254  0.1400
 5781SOL     OW18783   5.925   3.015  10.741  0.5092  0.2985  0.2784
 5781SOL    HW118784   5.953   3.044  10.828  1.1791  1.1690 -0.2058
 5781SOL    HW218785   5.946   3.089  10.684 -0.0671 -0.2008 -0.6013
 5782SOL     OW18786   7.015   4.279   1.387 -0.2849 -0.2276 -0.2710
 5782SOL    HW118787   7.032   4.201   1.335  0.3146  0.3623 -0.9896
 5782SOL    HW218788   7.012   4.350   1.323  0.1057  0.4685  0.4653
 5783SOL     OW18789   1.253   5.851   6.325  0.6121  0.0552  0.3794
 5783SOL    HW118790   1.165   5.882   6.346  0.1002 -0.4051 -0.9459
 5783SOL    HW218791   1.299   5.847   6.409  0.5499  3.7830  0.7413
 5784SOL     OW18792   3.532   6.906   6.208  0.6036  0.2984 -0.6786
 5784SOL    HW118793   3.520   6.912   6.302 -2.8233 -0.9871 -0.9108
 5784SOL    HW218794   3.476   6.975   6.171  0.5469 -0.3070 -1.7939
 5785SOL     OW18795   0.462   0.038   7.306  0.3244 -0.2081 -0.1439
 5785SOL    HW118796   0.524  -0.006   7.363 -0.8867 -1.6344  0.1541
 5785SOL    HW218797   0.465   0.130   7.332  0.8646 -0.5868  1.2086
 5786SOL     OW18798   0.101   2.235   4.576  0.1850  0.2113 -0.1216
 5786SOL    HW118799   0.056   2.319   4.570  1.3369  0.9255  0.7404
 5786SOL    HW218800   0.056   2.189   4.647  1.2078  1.2324  1.2679
 5787SOL     OW18801   6.310   2.909   2.023 -0.7825 -0.2657  0.0516
 5787SOL    HW118802   6.322   2.815   2.009  0.3652 -0.2905  1.0723
 5787SOL    HW218803   6.306   2.918   2.118 -1.8930  0.6172 -0.0631
 5788SOL     OW18804   3.885   1.927   5.175 -0.0412  0.1789  0.0542
 5788SOL    HW118805   3.859   1.844   5.136 -0.1821  0.2269  0.0476
 5788SOL    HW218806   3.981   1.926   5.170 -0.0074 -0.2948  0.6936
 5789SOL     OW18807   4.375   4.067   4.126  0.0105  0.3653  0.1755
 5789SOL    HW118808   4.373   3.983   4.172 -0.3480  0.8243  1.0140
 5789SOL    HW218809   4.364   4.133   4.194 -0.6413  1.0620 -0.5762
 5790SOL     OW18810   7.122   0.323  12.284  0.1556  0.2899 -0.1055
 5790SOL    HW118811   7.151   0.244  12.331 -0.8917  0.9036  1.6781
 5790SOL    HW218812   7.185   0.390  12.309 -0.4965  0.6577  0.6052
 5791SOL     OW18813   3.660   4.828  11.947  0.0111 -0.1436 -0.6656
 5791SOL    HW118814   3.740   4.880  11.947 -0.7857  1.1524 -1.5719
 5791SOL    HW218815   3.590   4.892  11.936 -1.0074 -1.4057 -2.0048
 5792SOL     OW18816   3.063   7.626   1.789 -0.6782 -0.4436  0.1769
 5792SOL    HW118817   2.995   7.684   1.755 -0.1568  0.4718  0.6378
 5792SOL    HW218818   3.109   7.680   1.854  1.1221 -0.6930 -0.8345
 5793SOL     OW18819   4.940   6.746   3.428 -0.1529  0.3663  0.3969
 5793SOL    HW118820   4.869   6.734   3.491 -1.0298  0.4176 -0.5448
 5793SOL    HW218821   5.000   6.807   3.470  0.1839 -0.9391  1.8902
 5794SOL     OW18822   1.580   7.907   2.462 -0.6727  0.0477  0.2087
 5794SOL    HW118823   1.598   7.954   2.380 -0.2526  0.7727  0.7056
 5794SOL    HW218824   1.558   7.976   2.524  2.7950 -0.0116  1.7643
 5795SOL     OW18825   5.942   4.709   6.588 -0.3169  0.2646  0.8490
 5795SOL    HW118826   6.009   4.732   6.652  0.4456  1.0716 -0.2114
 5795SOL    HW218827   5.921   4.617   6.607 -0.8383  0.7583  2.8592
 5796SOL     OW18828   0.821   7.540   4.146 -0.6489 -0.3668 -0.3165
 5796SOL    HW118829   0.859   7.522   4.060 -0.0031 -1.0029  0.0824
 5796SOL    HW218830   0.847   7.630   4.166  2.9541 -1.4994  1.0199
 5797SOL     OW18831   4.886   4.058   4.000  0.1652  0.4458 -0.2690
 5797SOL    HW118832   4.849   4.121   4.061 -1.7557 -0.4612 -0.4383
 5797SOL    HW218833   4.905   4.109   3.921  2.9226  1.6873  1.0449
 5798SOL     OW18834   4.583   3.943   4.965  0.1951  0.7729  0.2093
 5798SOL    HW118835   4.651   3.958   5.031 -0.2740  2.1985  0.4054
 5798SOL    HW218836   4.584   4.022   4.911 -0.6735  0.4028 -0.3640
 5799SOL     OW18837   3.112   0.017   9.993  0.3854 -0.1135  0.3433
 5799SOL    HW118838   3.024  -0.012  10.014  0.4788 -0.2989  0.4791
 5799SOL    HW218839   3.169  -0.052  10.027  0.5356 -0.5115 -0.6812
 5800SOL     OW18840   6.911   6.493  11.378 -0.3211 -0.4776  0.3288
 5800SOL    HW118841   6.939   6.453  11.295 -2.5216 -1.0716 -0.2084
 5800SOL    HW218842   6.817   6.507  11.367 -0.5863 -0.1150  2.5528
 5801SOL     OW18843   6.389   6.680   1.693 -0.8222  0.5291 -0.4326
 5801SOL    HW118844   6.407   6.620   1.765  0.6614  1.2773 -0.1470
 5801SOL    HW218845   6.467   6.736   1.687 -1.3838  1.2284 -1.8794
 5802SOL     OW18846   5.946   7.320   8.385 -0.3696  0.0843  0.1860
 5802SOL    HW118847   5.935   7.405   8.343 -0.4610 -0.2857 -0.5541
 5802SOL    HW218848   5.896   7.327   8.467 -3.4094 -0.3942 -1.4888
 5803SOL     OW18849   6.926   3.915   7.287 -0.0641  0.0318  0.5780
 5803SOL    HW118850   6.940   3.976   7.215  0.9000  0.1371  0.8369
 5803SOL    HW218851   6.833   3.923   7.308  0.4832  3.3282  2.3042
 5804SOL     OW18852   4.533   7.588  10.845  0.1531 -0.0363  0.5103
 5804SOL    HW118853   4.629   7.592  10.849  0.2767 -1.8589  0.0397
 5804SOL    HW218854   4.513   7.582  10.752 -0.5642  2.2671  0.4566
 5805SOL     OW18855   7.411   4.272   8.250 -0.0915 -0.3838  0.5324
 5805SOL    HW118856   7.475   4.320   8.303  0.0309  0.3353 -0.2536
 5805SOL    HW218857   7.346   4.241   8.314  0.6185 -0.4640  1.2367
 5806SOL     OW18858   7.400   1.005   8.545 -0.5261  0.1564 -0.3483
 5806SOL    HW118859   7.429   0.957   8.468 -0.2469 -2.1195  1.0776
 5806SOL    HW218860   7.441   0.959   8.619  1.3805  3.8030  1.1077
 5807SOL     OW18861   3.026   5.358   7.770 -0.3935  0.4569 -0.0404
 5807SOL    HW118862   3.082   5.432   7.746  1.9535 -0.8652  0.9320
 5807SOL    HW218863   3.022   5.304   7.691  1.3176 -0.3267  0.3519
 5808SOL     OW18864   1.142   1.304  11.423 -0.4221 -0.1788  0.3768
 5808SOL    HW118865   1.072   1.341  11.369 -0.7649 -0.0890  0.8707
 5808SOL    HW218866   1.111   1.316  11.513 -0.8334 -2.2394  0.5451
 5809SOL     OW18867   3.283   7.753   3.799 -0.0267 -0.5414  0.1580
 5809SOL    HW118868   3.375   7.761   3.823  0.1134 -0.5757 -0.3638
 5809SOL    HW218869   3.241   7.829   3.841 -0.1809 -1.7099  2.2849
 5810SOL     OW18870   2.910   6.344   5.219 -0.1177  0.2071  0.4134
 5810SOL    HW118871   2.916   6.353   5.314  1.8163 -1.9907  0.5940
 5810SOL    HW218872   2.964   6.416   5.185  0.2269  0.2533  1.0376
 5811SOL     OW18873   4.853   7.754   4.255 -0.1420  0.2072  0.0567
 5811SOL    HW118874   4.940   7.714   4.247 -0.4329 -0.4273 -0.0183
 5811SOL    HW218875   4.862   7.839   4.213  0.7475  0.6270  1.0521
 5812SOL     OW18876   2.098   2.623   1.757  0.4016  0.1468  0.0704
 5812SOL    HW118877   2.022   2.641   1.702 -0.2732  0.2199  1.0060
 5812SOL    HW218878   2.107   2.701   1.811  1.7456  0.5545 -0.6849
 5813SOL     OW18879   0.244   5.372   6.407 -0.5906  0.2826  0.0040
 5813SOL    HW118880   0.339   5.387   6.402 -1.0405  3.1465 -2.0941
 5813SOL    HW218881   0.217   5.419   6.486 -0.4632  0.7349 -0.2203
 5814SOL     OW18882   2.205   2.120   7.267 -0.0927  0.0452  0.2674
 5814SOL    HW118883   2.227   2.206   7.302  1.7293 -0.1941 -0.2042
 5814SOL    HW218884   2.134   2.138   7.204  2.6657  1.8572 -2.6162
 5815SOL     OW18885   5.718   0.956   9.635  0.1638 -0.2640 -0.0437
 5815SOL    HW118886   5.752   0.927   9.551 -1.3354  0.0773 -0.7888
 5815SOL    HW218887   5.724   1.052   9.632  0.5516 -0.2664  0.4436
 5816SOL     OW18888   6.335   5.957   0.666 -0.0497 -0.5195  0.7346
 5816SOL    HW118889   6.302   6.027   0.723 -2.9881 -0.7800 -0.4463
 5816SOL    HW218890   6.283   5.967   0.586  2.7178 -1.2289 -1.2688
 5817SOL     OW18891   7.517   0.964   3.818  0.7038 -0.2755  0.1159
 5817SOL    HW118892   7.513   0.887   3.761 -1.1687  0.6814 -1.1405
 5817SOL    HW218893   7.484   1.035   3.764 -0.0072  0.9143  2.0449
 5818SOL     OW18894   0.859   7.507  10.316  0.2279 -0.0653 -0.0703
 5818SOL    HW118895   0.820   7.561  10.247  1.5941 -0.4179 -1.1776
 5818SOL    HW218896   0.853   7.561  10.395 -2.4326 -0.1227 -0.1586
 5819SOL     OW18897   5.779   6.176   8.185  0.5365  0.2247 -0.2873
 5819SOL    HW118898   5.767   6.265   8.219  0.8716 -1.0967  3.8241
 5819SOL    HW218899   5.693   6.152   8.151 -0.0807  1.4435  0.3381
 5820SOL     OW18900   2.139   5.833  10.032  0.3135  0.2484 -0.1362
 5820SOL    HW118901   2.099   5.823   9.946  1.3274 -0.2844 -0.5610
 5820SOL    HW218902   2.232   5.818  10.017  0.2394 -2.3163  1.4641
 5821SOL     OW18903   5.208   7.366   9.477 -0.2927  0.5443  0.3232
 5821SOL    HW118904   5.201   7.284   9.527 -0.3186 -0.1412 -0.7704
 5821SOL    HW218905   5.123   7.374   9.432  0.6801 -0.3675 -1.8337
 5822SOL     OW18906   6.115   7.153   3.290 -0.1359  0.1389 -0.1256
 5822SOL    HW118907   6.168   7.075   3.307 -0.3314 -0.0680 -0.4595
 5822SOL    HW218908   6.173   7.226   3.312 -0.7066 -0.1022  2.4362
 5823SOL     OW18909   6.677   0.638   0.202  0.1691 -0.4276  0.5197
 5823SOL    HW118910   6.676   0.620   0.108 -1.0772 -1.2708  0.6700
 5823SOL    HW218911   6.655   0.730   0.210 -2.3685 -0.9270  0.0551
 5824SOL     OW18912   6.289   4.616   9.251  0.4570 -0.0873 -0.3148
 5824SOL    HW118913   6.202   4.638   9.284  0.2995  0.5171 -1.1001
 5824SOL    HW218914   6.286   4.638   9.158  2.0745  1.9508  0.0239
 5825SOL     OW18915   5.768   2.911   2.699 -0.1681 -0.5244  0.0019
 5825SOL    HW118916   5.780   2.895   2.606 -1.8268 -2.4983  0.0723
 5825SOL    HW218917   5.706   2.845   2.728 -2.4039  2.1286  1.8368
 5826SOL     OW18918   2.906   4.357   6.138 -0.3114 -0.1009  0.3186
 5826SOL    HW118919   2.878   4.448   6.141 -0.4185 -0.0790 -0.8360
 5826SOL    HW218920   2.851   4.317   6.071  0.1477 -0.8617  0.3863
 5827SOL     OW18921   1.832   6.168   1.378 -0.4302 -0.5973 -0.5543
 5827SOL    HW118922   1.849   6.140   1.468 -1.8126 -1.0200 -0.3984
 5827SOL    HW218923   1.913   6.209   1.349 -0.5694  1.4070  1.5999
 5828SOL     OW18924   2.762   1.684   1.258 -0.7181  0.2137 -0.1467
 5828SOL    HW118925   2.733   1.702   1.168  1.0875 -0.0159 -0.8110
 5828SOL    HW218926   2.827   1.751   1.276  0.6788 -1.1547  0.0826
 5829SOL     OW18927   1.622   3.941  10.471 -0.3533  0.0439  0.3827
 5829SOL    HW118928   1.657   4.029  10.464 -0.2860 -0.0636 -0.7925
 5829SOL    HW218929   1.539   3.951  10.518 -0.7038  0.8267 -0.3933
 5830SOL     OW18930   7.925   5.735   4.601  0.0113 -0.4843  0.8140
 5830SOL    HW118931   7.978   5.748   4.523 -0.5235 -3.1841 -0.1145
 5830SOL    HW218932   7.857   5.802   4.596 -0.2350 -0.8271 -1.2936
 5831SOL     OW18933   7.439   0.998  12.004  0.5576 -0.4251  0.0962
 5831SOL    HW118934   7.473   0.921  12.050 -0.1225 -1.6217 -1.3239
 5831SOL    HW218935   7.454   1.071  12.065  1.9305 -1.5351  1.1637
 5832SOL     OW18936   6.045   3.729   0.889  0.0526  0.2171 -0.1359
 5832SOL    HW118937   5.997   3.784   0.950 -1.2061 -0.5725 -0.3731
 5832SOL    HW218938   6.067   3.650   0.939  0.8508  0.4438 -0.1170
 5833SOL     OW18939   0.489   1.292   7.949 -0.2253  0.1245 -0.3892
 5833SOL    HW118940   0.554   1.283   8.018 -0.6436  0.8762  0.1132
 5833SOL    HW218941   0.408   1.316   7.994 -0.5864  0.2847 -1.1013
 5834SOL     OW18942   1.829   7.368   2.978 -0.3239 -0.3273 -0.3501
 5834SOL    HW118943   1.853   7.323   3.059  0.1602  0.5204 -0.0180
 5834SOL    HW218944   1.739   7.397   2.992 -0.0302  0.3692  0.1402
 5835SOL     OW18945   4.353   2.426  11.109 -0.1086  0.1491 -0.3895
 5835SOL    HW118946   4.356   2.334  11.135 -0.3199  0.0108 -0.8453
 5835SOL    HW218947   4.287   2.430  11.040 -0.5423  0.7550  0.0473
 5836SOL     OW18948   4.106   6.231   0.990 -0.4478  0.4734  0.1076
 5836SOL    HW118949   4.073   6.295   1.052 -0.5273 -0.5228  1.1221
 5836SOL    HW218950   4.028   6.197   0.945 -0.6313 -0.3955  1.0490
 5837SOL     OW18951   5.498   5.151   2.008  0.3354 -0.1701  0.1490
 5837SOL    HW118952   5.547   5.233   2.021  0.8894 -0.4863  0.0744
 5837SOL    HW218953   5.560   5.082   2.032 -0.3608 -0.5498  0.9211
 5838SOL     OW18954   7.475   6.868   1.508  0.7158  0.2336 -0.4332
 5838SOL    HW118955   7.511   6.950   1.542  1.6965  0.3332 -1.6457
 5838SOL    HW218956   7.500   6.802   1.573 -0.1606  0.8601  0.6029
 5839SOL     OW18957   6.153   4.975   0.058  0.5958  0.1707  0.5113
 5839SOL    HW118958   6.186   4.911  -0.005  1.1673  0.5638  0.4039
 5839SOL    HW218959   6.142   4.925   0.139 -0.0824 -0.3246  0.1281
 5840SOL     OW18960   1.318   5.407   4.961 -0.3372  0.1985 -0.3033
 5840SOL    HW118961   1.378   5.333   4.951 -1.1395 -0.8661  2.0805
 5840SOL    HW218962   1.369   5.473   5.009 -0.8260 -0.4789  1.2089
 5841SOL     OW18963   5.100   1.949   4.990  0.0001  0.3127  0.4460
 5841SOL    HW118964   5.054   2.028   4.960 -0.5793 -0.0973  0.2600
 5841SOL    HW218965   5.042   1.911   5.056  1.7110  1.8027  3.0471
 5842SOL     OW18966   4.339   0.436   2.097  0.0519 -0.6372  0.2728
 5842SOL    HW118967   4.307   0.390   2.175  0.5572 -2.4806 -0.5481
 5842SOL    HW218968   4.380   0.368   2.044  1.5780  0.9199 -0.6724
 5843SOL     OW18969   5.212   4.348   8.553  0.3723  0.2303 -0.1888
 5843SOL    HW118970   5.291   4.321   8.508 -0.1940  1.9970 -2.4695
 5843SOL    HW218971   5.144   4.345   8.486 -1.3043 -0.3056  1.4512
 5844SOL     OW18972   3.182   1.700   7.631  0.0013 -0.8034 -0.3341
 5844SOL    HW118973   3.150   1.610   7.634 -1.5755 -0.3025 -0.9415
 5844SOL    HW218974   3.195   1.724   7.723 -2.8123 -0.6204  0.1308
 5845SOL     OW18975   7.772   6.650  11.634 -0.1527  0.0616  0.3006
 5845SOL    HW118976   7.854   6.601  11.633  1.0948  1.8498 -3.2218
 5845SOL    HW218977   7.703   6.584  11.639  1.4812 -1.6727  0.6756
 5846SOL     OW18978   6.508   1.826   8.049 -0.2438  0.1466  0.3791
 5846SOL    HW118979   6.454   1.857   8.121 -1.5481  0.8110 -0.8236
 5846SOL    HW218980   6.587   1.880   8.053 -1.0458  1.3655  0.3094
 5847SOL     OW18981   2.389   1.799   4.228 -0.3684 -0.0129 -0.3459
 5847SOL    HW118982   2.316   1.860   4.214 -0.9409 -0.8474 -1.1019
 5847SOL    HW218983   2.366   1.722   4.176  0.3215 -0.8951  0.6200
 5848SOL     OW18984   7.253   3.903   0.798 -0.6699  0.2102  0.8739
 5848SOL    HW118985   7.181   3.867   0.745  0.3342 -0.8957  0.2065
 5848SOL    HW218986   7.264   3.992   0.766  0.9040 -0.8717 -1.9622
 5849SOL     OW18987   0.624   5.112   8.025  0.3302 -0.5146  0.7331
 5849SOL    HW118988   0.552   5.081   7.971 -1.3454  0.9312  2.0348
 5849SOL    HW218989   0.686   5.151   7.963 -0.3561 -1.0856 -0.3362
 5850SOL     OW18990   1.524   0.858   6.808 -0.2014  0.3738 -0.4386
 5850SOL    HW118991   1.617   0.849   6.788  0.0354  2.4635 -0.5623
 5850SOL    HW218992   1.521   0.876   6.902 -0.7823 -2.6375  0.2243
 5851SOL     OW18993   5.526   6.703   9.976  0.6560  0.4781  0.7786
 5851SOL    HW118994   5.515   6.662  10.062  0.8104  2.4732  1.7991
 5851SOL    HW218995   5.454   6.766   9.970  2.0719  2.1525  0.5605
 5852SOL     OW18996   1.155   6.967   9.977 -0.2886  0.1542 -0.2207
 5852SOL    HW118997   1.235   6.920  10.001 -0.0550  1.0007  0.7802
 5852SOL    HW218998   1.099   6.901   9.937  0.9550 -0.4283 -1.0507
 5853SOL     OW18999   1.086   3.936   4.658 -0.4551 -0.1495 -0.2192
 5853SOL    HW119000   1.013   3.882   4.627  0.9494 -0.6293 -3.0321
 5853SOL    HW219001   1.056   4.026   4.644 -0.9772 -0.3065 -0.1425
 5854SOL     OW19002   4.025   2.587   2.195 -0.0839 -0.1391 -0.2818
 5854SOL    HW119003   3.936   2.619   2.210 -0.1888 -0.3076 -0.5419
 5854SOL    HW219004   4.027   2.566   2.102  0.2255 -0.1499 -0.2725
 5855SOL     OW19005   3.983   0.559  11.211 -0.0694 -0.5281  0.2735
 5855SOL    HW119006   3.897   0.553  11.252 -1.4525  0.4278 -2.3235
 5855SOL    HW219007   3.967   0.542  11.118  2.7769 -1.7217 -0.1019
 5856SOL     OW19008   2.630   2.219   9.502  0.2687  0.0766  0.2579
 5856SOL    HW119009   2.622   2.156   9.430  0.8742  0.3739 -0.0779
 5856SOL    HW219010   2.652   2.167   9.578 -0.7900 -0.2949  0.3317
 5857SOL     OW19011   7.462   6.960   0.364 -0.3537 -0.4220 -0.5104
 5857SOL    HW119012   7.449   6.873   0.401 -2.4701 -0.0907 -0.3879
 5857SOL    HW219013   7.462   7.018   0.440  1.0742 -0.2638 -0.5887
 5858SOL     OW19014   6.408   1.791   9.943 -0.2948 -0.2500 -0.6652
 5858SOL    HW119015   6.351   1.867   9.958  0.2867  0.0615  0.0500
 5858SOL    HW219016   6.441   1.803   9.854 -1.3282 -0.4375 -1.0949
 5859SOL     OW19017   5.772   2.157   3.877  0.7432  0.3213 -0.2943
 5859SOL    HW119018   5.825   2.232   3.849 -1.5568  2.0682 -0.2584
 5859SOL    HW219019   5.686   2.173   3.840  0.0760 -2.2010 -0.0260
 5860SOL     OW19020   5.707   6.537   4.572 -0.0868  0.1252  0.6088
 5860SOL    HW119021   5.638   6.533   4.505 -0.6554 -0.4523  1.2165
 5860SOL    HW219022   5.785   6.501   4.529 -0.7821 -1.5209  0.6473
 5861SOL     OW19023   5.309   7.890   8.163 -0.7189 -0.0638 -0.0327
 5861SOL    HW119024   5.337   7.934   8.244 -0.0453 -0.4741 -0.0301
 5861SOL    HW219025   5.222   7.856   8.183 -0.0838 -1.2100  0.9599
 5862SOL     OW19026   1.261   4.461   8.627  0.1809 -0.2271  0.2080
 5862SOL    HW119027   1.286   4.442   8.537  0.4344 -0.5145  0.3368
 5862SOL    HW219028   1.260   4.557   8.632 -0.2868 -0.2042 -0.2228
 5863SOL     OW19029   5.408   6.470   8.119  0.0378  0.1006  0.1470
 5863SOL    HW119030   5.347   6.543   8.123 -0.3765 -0.1306 -1.3110
 5863SOL    HW219031   5.482   6.504   8.068  0.7929  0.1353  1.2348
 5864SOL     OW19032   3.522   6.797   8.632 -0.0034 -0.2544 -0.3550
 5864SOL    HW119033   3.590   6.759   8.577  1.2028  1.8735 -0.4435
 5864SOL    HW219034   3.541   6.765   8.720  0.8563 -0.0336 -0.4566
 5865SOL     OW19035   6.516   5.002   4.090  0.6470  0.1091  0.1745
 5865SOL    HW119036   6.569   4.935   4.133 -1.6103 -0.7331  1.8449
 5865SOL    HW219037   6.521   5.078   4.149  2.2783  1.0657 -1.1372
 5866SOL     OW19038   5.252   6.471   9.060 -0.5412  0.6179  0.8380
 5866SOL    HW119039   5.158   6.457   9.068 -0.6165  0.7249  0.1878
 5866SOL    HW219040   5.278   6.504   9.146 -1.1055  0.6383  1.0080
 5867SOL     OW19041   0.523   5.110   1.465 -0.2478  0.0857  0.2340
 5867SOL    HW119042   0.449   5.121   1.524  0.5833 -0.0511  1.3225
 5867SOL    HW219043   0.526   5.016   1.447  0.1348 -0.0249  0.8381
 5868SOL     OW19044   6.869   0.878   6.660  0.4776  0.2936 -0.0074
 5868SOL    HW119045   6.902   0.812   6.599  1.9364  1.1695 -0.1989
 5868SOL    HW219046   6.946   0.907   6.709 -0.2772  1.2693  0.6467
 5869SOL     OW19047   2.671   6.031  10.288 -0.1643 -0.2284  0.3020
 5869SOL    HW119048   2.758   6.048  10.323  0.3318 -0.5570 -0.7380
 5869SOL    HW219049   2.612   6.071  10.352  0.7412  0.1287  0.9493
 5870SOL     OW19050   1.943   0.994   4.689  0.3028 -0.1864 -0.3515
 5870SOL    HW119051   1.860   0.960   4.724  1.1302 -1.5195  0.4276
 5870SOL    HW219052   1.921   1.079   4.653 -1.5457 -0.7908 -0.7642
 5871SOL     OW19053   2.504   2.631   5.069  0.0309  0.4863 -0.2494
 5871SOL    HW119054   2.463   2.708   5.030  0.5934  0.9923  0.1243
 5871SOL    HW219055   2.440   2.561   5.058 -0.7161  1.1363 -0.1233
 5872SOL     OW19056   2.877   2.450   6.996  0.0987 -0.0009 -0.1230
 5872SOL    HW119057   2.880   2.465   7.090  0.3759 -0.7983 -0.0007
 5872SOL    HW219058   2.969   2.441   6.970 -0.0408 -1.2967 -0.2117
 5873SOL     OW19059   7.324   6.201   5.478 -0.1287 -0.4010  0.5308
 5873SOL    HW119060   7.253   6.250   5.518  0.7013  2.7466 -1.4735
 5873SOL    HW219061   7.403   6.247   5.507  0.7118 -0.5636 -1.4042
 5874SOL     OW19062   6.144   3.962  10.003  0.0157  0.2314  0.3305
 5874SOL    HW119063   6.092   4.042   9.996  0.7233  0.5527 -2.6339
 5874SOL    HW219064   6.082   3.895  10.032 -1.4157  1.1648 -0.4658
 5875SOL     OW19065   0.255   5.450   4.831 -0.4454  0.5319 -0.2576
 5875SOL    HW119066   0.292   5.415   4.912  1.5388  1.5408 -0.6730
 5875SOL    HW219067   0.171   5.489   4.858 -0.5225 -0.4475  1.0123
 5876SOL     OW19068   2.164   6.243   4.269 -0.4806 -0.3379 -0.1358
 5876SOL    HW119069   2.237   6.293   4.232 -1.7058  2.6544  1.2401
 5876SOL    HW219070   2.206   6.183   4.332  0.9808 -0.7809 -1.4469
 5877SOL     OW19071   2.221   5.458   4.265  0.5135 -0.2040  0.3224
 5877SOL    HW119072   2.305   5.488   4.230 -0.0880  0.7708 -0.3346
 5877SOL    HW219073   2.207   5.509   4.345  0.6326 -0.5116  0.5435
 5878SOL     OW19074   2.804   4.797   5.367 -0.2097 -1.1230  0.1252
 5878SOL    HW119075   2.721   4.753   5.388 -0.4338 -0.2711  1.1015
 5878SOL    HW219076   2.779   4.888   5.349  0.1200 -1.5156 -2.8424
 5879SOL     OW19077   4.877   5.743  10.783  0.2160 -0.1358 -0.7012
 5879SOL    HW119078   4.872   5.773  10.692 -0.9710 -0.6112 -0.8142
 5879SOL    HW219079   4.923   5.660  10.778  0.4006 -0.0279 -0.8264
 5880SOL     OW19080   7.681   6.710   5.122 -0.2034 -0.0643 -0.6616
 5880SOL    HW119081   7.681   6.728   5.216  0.5271  1.8408 -0.9908
 5880SOL    HW219082   7.658   6.793   5.081  0.7954 -0.5063 -2.2142
 5881SOL     OW19083   1.100   6.992   6.668  0.0036  0.2552 -0.9069
 5881SOL    HW119084   1.040   6.933   6.622  0.8870 -1.2277 -0.2150
 5881SOL    HW219085   1.178   6.994   6.614 -0.1035  0.9963 -1.0428
 5882SOL     OW19086   0.913   3.479   9.841  0.3323 -0.3538 -0.1834
 5882SOL    HW119087   0.893   3.404   9.896 -1.7862 -0.3430 -0.8434
 5882SOL    HW219088   0.887   3.451   9.753 -0.6519  1.1818 -0.4138
 5883SOL     OW19089   5.061   4.993  11.570  0.0491  0.1023  0.2487
 5883SOL    HW119090   5.047   4.898  11.578  0.2405  0.1218  0.9355
 5883SOL    HW219091   5.030   5.028  11.654 -1.6124  0.8542 -0.6245
 5884SOL     OW19092   5.790   2.124   5.066 -0.0510  0.1147  0.5532
 5884SOL    HW119093   5.801   2.185   4.993 -1.4016 -0.1227  0.1354
 5884SOL    HW219094   5.879   2.109   5.098  0.2705  3.0402  1.2896
 5885SOL     OW19095   7.757   6.875   1.398  0.1420 -0.1719  0.8066
 5885SOL    HW119096   7.744   6.817   1.472  1.5932  0.3359  1.4879
 5885SOL    HW219097   7.750   6.963   1.435 -0.2021  0.0979  0.1249
 5886SOL     OW19098   2.738   7.912   8.513 -0.1805  0.2436 -0.2151
 5886SOL    HW119099   2.775   8.000   8.520 -1.9956  1.2195 -1.8767
 5886SOL    HW219100   2.652   7.919   8.555  0.2599 -1.2045  1.0276
 5887SOL     OW19101   2.033   4.761   6.596 -0.3763  0.0526 -0.1991
 5887SOL    HW119102   1.957   4.703   6.589 -0.2182 -0.2753  0.7381
 5887SOL    HW219103   2.049   4.769   6.690  0.3390  0.6669 -0.3622
 5888SOL     OW19104   2.383   4.604  11.178  0.3246 -0.3462 -0.2394
 5888SOL    HW119105   2.432   4.536  11.225  0.0978  0.2270  0.8468
 5888SOL    HW219106   2.437   4.624  11.102  1.0561 -0.7746  0.1559
 5889SOL     OW19107   0.595   5.539   2.943 -0.0507  0.0486 -0.2332
 5889SOL    HW119108   0.689   5.521   2.940  0.5461  2.7320 -1.9308
 5889SOL    HW219109   0.565   5.501   3.025  2.4362 -1.1551  0.2082
 5890SOL     OW19110   1.000   0.090   4.048 -0.9172  0.7126  0.1343
 5890SOL    HW119111   0.968   0.158   4.108 -1.0102  1.0922 -0.3443
 5890SOL    HW219112   0.956   0.108   3.966  0.1622  0.9575 -0.4112
 5891SOL     OW19113   2.941   2.380   4.301 -0.5470 -0.3821 -0.0456
 5891SOL    HW119114   2.905   2.394   4.388 -1.1079  1.1614 -0.4848
 5891SOL    HW219115   2.995   2.301   4.309  0.2954  0.3399  1.9554
 5892SOL     OW19116   7.868   3.076   0.321  0.2219  0.5039 -0.1466
 5892SOL    HW119117   7.794   3.024   0.352  0.0306  0.4100 -0.7481
 5892SOL    HW219118   7.940   3.053   0.380  0.1973 -0.5986 -0.5217
 5893SOL     OW19119   3.392   5.425   7.827 -0.0580 -0.9586 -0.1329
 5893SOL    HW119120   3.416   5.488   7.758 -1.5028 -1.2289 -0.9214
 5893SOL    HW219121   3.470   5.420   7.882  1.0499 -0.4892 -1.5645
 5894SOL     OW19122   1.040   7.290   5.304  0.0428  0.5610  0.1180
 5894SOL    HW119123   0.978   7.259   5.370 -0.4930  2.0446  0.3506
 5894SOL    HW219124   1.099   7.349   5.351  0.6294  0.4351 -0.4305
 5895SOL     OW19125   2.683   0.339   8.209  0.8245  0.2484 -0.0295
 5895SOL    HW119126   2.588   0.344   8.220  0.6083 -1.6553 -0.6642
 5895SOL    HW219127   2.695   0.278   8.136  2.5816 -1.4507  1.5833
 5896SOL     OW19128   0.902   5.204   7.602 -0.2541 -0.1980  0.3790
 5896SOL    HW119129   0.902   5.185   7.508 -1.1352  0.4779  0.2305
 5896SOL    HW219130   0.994   5.225   7.622  0.1287 -1.3657 -0.1052
 5897SOL     OW19131   6.603   0.586   5.480  0.2092  0.1358 -0.0584
 5897SOL    HW119132   6.557   0.563   5.561 -1.0318 -2.0966 -1.3030
 5897SOL    HW219133   6.532   0.607   5.418  0.9536 -1.0444 -1.3588
 5898SOL     OW19134   4.638   3.160   1.027  0.4486  0.6643 -0.7859
 5898SOL    HW119135   4.634   3.162   0.932  1.4281  2.4369 -0.8341
 5898SOL    HW219136   4.726   3.130   1.047 -0.2922 -1.3915 -0.3674
 5899SOL     OW19137   7.874   5.661   3.517 -0.3218 -0.2422 -0.0970
 5899SOL    HW119138   7.924   5.580   3.506 -0.1573 -0.1408 -0.0884
 5899SOL    HW219139   7.830   5.650   3.602 -0.1266 -0.2297  0.0067
 5900SOL     OW19140   3.674   1.108  12.070 -0.0792 -0.1226  0.3682
 5900SOL    HW119141   3.715   1.109  12.156 -0.1652 -1.1790  0.4409
 5900SOL    HW219142   3.712   1.032  12.026 -0.0001  0.4283 -0.5490
 5901SOL     OW19143   3.509   2.817   5.035 -0.2676  0.2433 -0.3461
 5901SOL    HW119144   3.452   2.866   4.975  0.5838  0.9813 -0.5617
 5901SOL    HW219145   3.547   2.883   5.092 -1.0121 -0.4426  1.0015
 5902SOL     OW19146   2.169   0.265  12.297 -0.1323 -0.0541  0.1956
 5902SOL    HW119147   2.195   0.186  12.345 -1.6989 -1.1626 -0.6857
 5902SOL    HW219148   2.106   0.307  12.355  0.3990  0.3572  0.4864
 5903SOL     OW19149   5.814   0.849   8.697 -0.2923 -0.0419 -0.0496
 5903SOL    HW119150   5.817   0.853   8.793 -2.8899 -1.3442  0.1679
 5903SOL    HW219151   5.748   0.914   8.673  0.5935  0.5265 -1.0160
 5904SOL     OW19152   6.421   3.455  10.333 -0.1075 -0.0376 -0.3377
 5904SOL    HW119153   6.419   3.519  10.404  0.9012 -0.3121 -0.0466
 5904SOL    HW219154   6.334   3.416  10.334 -0.7556  1.3224 -0.5301
 5905SOL     OW19155   6.046   4.782   4.193  1.0438 -0.0961 -0.2839
 5905SOL    HW119156   6.019   4.719   4.126  0.7159 -0.1949 -0.0636
 5905SOL    HW219157   6.133   4.810   4.166  1.6070 -1.3694  0.1193
 5906SOL     OW19158   5.606   3.392   0.253  0.2969 -0.3500 -0.4883
 5906SOL    HW119159   5.677   3.352   0.304  0.9597 -0.3174 -1.3539
 5906SOL    HW219160   5.586   3.473   0.299  2.2961  0.7046 -1.3652
 5907SOL     OW19161   6.560   2.945   3.789  0.3637  0.6054  0.0875
 5907SOL    HW119162   6.571   3.016   3.852  1.3334  0.8426 -0.3404
 5907SOL    HW219163   6.644   2.899   3.788  0.1836  0.2680 -0.6251
 5908SOL     OW19164   4.169   7.781   0.707 -0.2581 -0.2627  0.1109
 5908SOL    HW119165   4.163   7.837   0.630 -0.8396  0.6416  0.8072
 5908SOL    HW219166   4.144   7.694   0.675  1.3525 -0.3229 -1.1403
 5909SOL     OW19167   5.408   1.746   5.081 -0.3324  0.3102 -0.0605
 5909SOL    HW119168   5.383   1.837   5.072 -0.2076  0.2166 -1.5505
 5909SOL    HW219169   5.403   1.710   4.992 -1.3825 -1.3991  0.6302
 5910SOL     OW19170   4.733   7.316   9.290 -0.0754  0.2881 -0.0808
 5910SOL    HW119171   4.649   7.306   9.245 -0.1818 -0.9353  0.3465
 5910SOL    HW219172   4.778   7.386   9.242 -1.0871  0.5452 -0.6867
 5911SOL     OW19173   0.868   4.957   8.889 -0.0951 -0.2728 -0.1303
 5911SOL    HW119174   0.958   4.974   8.863 -0.1285 -1.1386 -0.8332
 5911SOL    HW219175   0.823   5.041   8.873 -0.0248 -0.6101 -2.5341
 5912SOL     OW19176   6.984   1.754   3.789 -0.4116 -0.1199 -0.5940
 5912SOL    HW119177   6.938   1.790   3.865  0.7820 -1.5890  0.8898
 5912SOL    HW219178   7.076   1.772   3.806  0.1725 -2.9421 -0.1790
 5913SOL     OW19179   4.320   2.070   4.776  0.3923  0.1870  0.5377
 5913SOL    HW119180   4.316   1.977   4.798  0.1036  0.4689  1.7385
 5913SOL    HW219181   4.229   2.100   4.779  0.1904  0.0464 -2.0853
 5914SOL     OW19182   3.549   7.623   1.837 -0.0493  0.2352  0.7179
 5914SOL    HW119183   3.511   7.678   1.768 -2.7990 -0.4196  1.5708
 5914SOL    HW219184   3.474   7.598   1.891  1.4016 -2.4972  1.6640
 5915SOL     OW19185   1.777   3.550   1.561 -0.0962  0.3556 -0.4217
 5915SOL    HW119186   1.798   3.465   1.601 -0.3253  0.1299 -0.7754
 5915SOL    HW219187   1.705   3.584   1.615  0.8330  0.9150  0.5013
 5916SOL     OW19188   5.152   7.894   5.580  0.1096 -0.1324 -0.2651
 5916SOL    HW119189   5.181   7.981   5.554 -0.2518 -0.3929 -1.6131
 5916SOL    HW219190   5.159   7.894   5.676  0.1081  1.3694 -0.2384
 5917SOL     OW19191   6.691   1.085   2.359 -0.0372 -0.2436 -0.3723
 5917SOL    HW119192   6.723   1.144   2.291  1.0799 -1.2219 -0.7421
 5917SOL    HW219193   6.674   1.141   2.435  1.5377  0.4843 -0.5249
 5918SOL     OW19194   0.210   4.857   0.902 -0.4367 -0.7346  0.4489
 5918SOL    HW119195   0.152   4.882   0.974 -1.7693 -1.4632 -0.3392
 5918SOL    HW219196   0.226   4.764   0.915  1.1159 -0.4265  1.0085
 5919SOL     OW19197   6.778   1.829  11.259  0.5369  0.0200  0.0956
 5919SOL    HW119198   6.741   1.917  11.267  0.5948  0.0269  0.3035
 5919SOL    HW219199   6.859   1.833  11.310  0.7249 -0.0511 -0.1952
 5920SOL     OW19200   5.134   7.361   4.666 -0.0637 -0.4868  0.3297
 5920SOL    HW119201   5.042   7.381   4.682  0.2617  1.1891  0.2432
 5920SOL    HW219202   5.181   7.441   4.691  1.5953 -1.9599  2.3811
 5921SOL     OW19203   7.471   6.977   0.088  0.0749  0.7042  0.4821
 5921SOL    HW119204   7.543   7.033   0.116 -0.6433  1.0922  1.6530
 5921SOL    HW219205   7.431   6.947   0.170 -1.3956  0.9012 -0.1272
 5922SOL     OW19206   6.754   7.084   3.095  0.2218 -0.2394  0.4117
 5922SOL    HW119207   6.769   6.996   3.060  0.5343 -0.9814  2.3082
 5922SOL    HW219208   6.666   7.107   3.067 -0.6450 -2.0126  1.5613
 5923SOL     OW19209   1.868   3.996   4.942  0.0238 -0.5153  0.3718
 5923SOL    HW119210   1.946   4.029   4.987 -0.0038  0.0228  0.0274
 5923SOL    HW219211   1.798   4.004   5.006  0.2038 -0.7812  0.6042
 5924SOL     OW19212   0.558   3.397  11.599 -0.2173 -0.1700 -0.1603
 5924SOL    HW119213   0.595   3.408  11.512  0.3250 -1.4170 -0.1040
 5924SOL    HW219214   0.496   3.469  11.608 -0.2491 -0.0051 -1.5514
 5925SOL     OW19215   4.125   4.844   5.204  0.1971  0.0619 -0.0724
 5925SOL    HW119216   4.105   4.766   5.255 -0.9748  0.5920  0.3181
 5925SOL    HW219217   4.077   4.832   5.122  2.9597 -1.3137 -1.6314
 5926SOL     OW19218   3.724   1.814   9.600 -0.6319  0.0667  0.3322
 5926SOL    HW119219   3.729   1.901   9.560 -3.3396 -0.2828 -1.0083
 5926SOL    HW219220   3.780   1.819   9.677  1.2128  2.2077 -1.0485
 5927SOL     OW19221   4.803   6.803   1.680  0.3312  0.4259  0.2781
 5927SOL    HW119222   4.741   6.741   1.640  0.7333  0.2774 -0.1299
 5927SOL    HW219223   4.889   6.763   1.666  0.7774  1.8613 -1.5479
 5928SOL     OW19224   5.529   1.575   2.376  0.0200  0.4280  0.0362
 5928SOL    HW119225   5.567   1.637   2.315 -0.8229  1.4760  0.5382
 5928SOL    HW219226   5.583   1.581   2.454  1.1896 -1.0236 -0.6276
 5929SOL     OW19227   5.874   3.293   9.133 -0.0830 -0.5809 -0.4998
 5929SOL    HW119228   5.966   3.277   9.151  0.1619  0.7957 -0.4329
 5929SOL    HW219229   5.837   3.318   9.218 -0.6395 -1.5816 -0.4287
 5930SOL     OW19230   6.551   6.779   8.295  0.4447 -0.0741  0.1046
 5930SOL    HW119231   6.563   6.703   8.239 -0.5766 -0.4484  0.3618
 5930SOL    HW219232   6.635   6.824   8.294  1.3660 -1.6992  0.6816
 5931SOL     OW19233   2.854   1.804   5.598 -0.1583  0.1297 -0.4427
 5931SOL    HW119234   2.930   1.793   5.539  0.4386  1.5236  0.0286
 5931SOL    HW219235   2.779   1.775   5.546  0.2641  1.9249 -2.1554
 5932SOL     OW19236   2.034   6.086  10.083 -0.4024  0.6491 -0.2546
 5932SOL    HW119237   1.990   6.128  10.009 -0.2156  0.5903 -0.4022
 5932SOL    HW219238   2.081   6.012  10.043 -0.4435  0.5139 -0.0499
 5933SOL     OW19239   6.711   3.913   6.641 -0.5006  0.1204 -0.7328
 5933SOL    HW119240   6.678   3.965   6.567  0.5184  0.2823 -1.0993
 5933SOL    HW219241   6.717   3.824   6.607 -0.2195  0.1589 -0.7873
 5934SOL     OW19242   5.727   7.249  12.347 -0.6280  0.1073 -0.0221
 5934SOL    HW119243   5.699   7.340  12.353 -0.1932  0.2102  0.5332
 5934SOL    HW219244   5.808   7.251  12.297 -1.2366 -0.1152 -1.0416
 5935SOL     OW19245   3.044   6.475   1.542 -0.4165  0.2467  0.1673
 5935SOL    HW119246   3.113   6.474   1.609 -0.8161 -0.8858  0.5883
 5935SOL    HW219247   3.084   6.433   1.466 -0.9360 -1.4340  0.7660
 5936SOL     OW19248   1.212   2.711  10.398  0.3849 -0.1166 -0.2143
 5936SOL    HW119249   1.304   2.690  10.413 -0.1592 -2.3506  0.4122
 5936SOL    HW219250   1.201   2.705  10.303  1.0932  1.3037 -0.4102
 5937SOL     OW19251   1.646   1.408   5.988  0.5584 -0.1783  0.0964
 5937SOL    HW119252   1.695   1.444   6.061 -0.6985 -1.8892  1.8867
 5937SOL    HW219253   1.696   1.331   5.961  0.9345  0.3579 -0.7872
 5938SOL     OW19254   7.169   0.389   0.241  0.5553 -0.4925 -0.3107
 5938SOL    HW119255   7.081   0.424   0.255  0.5811  0.3446 -2.0048
 5938SOL    HW219256   7.227   0.464   0.257  0.8081 -0.4818 -1.2342
 5939SOL     OW19257   2.827   6.403   1.888  0.8708  0.0924  0.4439
 5939SOL    HW119258   2.839   6.395   1.794  0.1651  2.4023  0.0890
 5939SOL    HW219259   2.734   6.384   1.902  0.7588  0.6750  0.5236
 5940SOL     OW19260   2.019   4.020   5.719  0.4881  0.0652  0.0361
 5940SOL    HW119261   2.019   3.939   5.668 -1.3924 -0.3041  0.5728
 5940SOL    HW219262   2.112   4.044   5.724  0.8491 -0.3319 -2.8013
 5941SOL     OW19263   7.155   5.752   1.616  0.2811  0.1783  0.2399
 5941SOL    HW119264   7.198   5.806   1.682 -0.5571  1.3618 -0.1397
 5941SOL    HW219265   7.209   5.765   1.537 -0.3221  1.0867 -0.0451
 5942SOL     OW19266   5.260   2.693   1.001 -0.0336  0.3404  0.2334
 5942SOL    HW119267   5.172   2.698   1.038  0.4875  0.6275  1.4994
 5942SOL    HW219268   5.289   2.605   1.022  1.1103  1.1819  2.6593
 5943SOL     OW19269   3.118   0.327   5.921  0.4930  0.0343  0.1986
 5943SOL    HW119270   3.054   0.260   5.899  0.0561  0.5240 -0.0493
 5943SOL    HW219271   3.202   0.283   5.914  0.1722 -0.7015  0.8555
 5944SOL     OW19272   2.662   4.148   0.801 -0.0813 -0.0589 -0.2831
 5944SOL    HW119273   2.618   4.226   0.767 -0.1757 -0.4495 -1.0962
 5944SOL    HW219274   2.624   4.135   0.888 -1.2342 -0.1014 -0.7675
 5945SOL     OW19275   5.211   2.065   2.021  0.4426  0.1707  0.0548
 5945SOL    HW119276   5.272   2.006   2.064 -0.1079  0.5172  1.3523
 5945SOL    HW219277   5.226   2.051   1.927  3.6356  1.3592  0.2559
 5946SOL     OW19278   6.948   6.534   3.932 -0.5547 -0.1452 -0.3155
 5946SOL    HW119279   6.913   6.569   3.851 -1.7940  0.5944  0.5015
 5946SOL    HW219280   6.892   6.459   3.953  1.1261 -1.7347 -1.2491
 5947SOL     OW19281   1.484   2.746   2.002  0.2923  0.1510  0.2533
 5947SOL    HW119282   1.424   2.783   1.937 -1.3698 -1.8376  0.5683
 5947SOL    HW219283   1.556   2.708   1.951  0.1362  0.5513 -0.2661
 5948SOL     OW19284   5.052   5.595  12.245  0.0113  0.0739 -0.2012
 5948SOL    HW119285   5.036   5.683  12.211  0.5204  0.2126 -0.0971
 5948SOL    HW219286   4.965   5.556  12.252 -0.0997 -0.0889 -2.0090
 5949SOL     OW19287   0.232   5.057   9.263  0.6076  0.3972 -0.1729
 5949SOL    HW119288   0.222   5.146   9.230  1.5914  0.1798 -1.1325
 5949SOL    HW219289   0.213   5.064   9.357  0.3668  1.5547 -0.2885
 5950SOL     OW19290   5.067   3.825  11.975  0.6820  0.2471  0.0256
 5950SOL    HW119291   5.012   3.841  11.898 -1.3673  1.5799  1.6525
 5950SOL    HW219292   5.042   3.737  12.005  1.8038 -0.4604 -1.0109
 5951SOL     OW19293   6.194   6.504   1.643  0.7087 -0.0290  0.2213
 5951SOL    HW119294   6.263   6.440   1.624 -0.0181 -1.0786  1.0064
 5951SOL    HW219295   6.242   6.583   1.666  1.6743 -0.7403  0.7498
 5952SOL     OW19296   6.909   7.308   3.802 -0.2539 -0.2057 -0.7305
 5952SOL    HW119297   6.832   7.361   3.781 -0.4626 -0.5042 -0.7212
 5952SOL    HW219298   6.888   7.220   3.769 -0.2527 -0.4876  0.0099
 5953SOL     OW19299   5.465   5.362   5.907 -0.1872 -0.0433  0.3654
 5953SOL    HW119300   5.464   5.451   5.871  1.0231  0.0302  0.4832
 5953SOL    HW219301   5.470   5.374   6.002 -0.4353 -0.2484  0.4075
 5954SOL     OW19302   0.402   0.910   2.833  0.2055  0.6512  0.6081
 5954SOL    HW119303   0.436   0.881   2.748  0.1412  0.2764  0.7093
 5954SOL    HW219304   0.359   0.832   2.869 -0.2831  0.9737  0.7226
 5955SOL     OW19305   4.017   2.343   3.262 -0.2657  0.7765 -0.0853
 5955SOL    HW119306   4.014   2.343   3.166  1.5960  2.8574 -0.2319
 5955SOL    HW219307   4.094   2.290   3.283 -0.0984  1.1367  0.2059
 5956SOL     OW19308   1.389   1.120  10.247  0.2481 -0.0818 -0.2454
 5956SOL    HW119309   1.387   1.176  10.170  0.7889 -0.2793 -0.4045
 5956SOL    HW219310   1.338   1.167  10.312 -0.4381 -0.0301 -0.8015
 5957SOL     OW19311   5.672   0.298   9.488  0.2107  0.6032 -0.0510
 5957SOL    HW119312   5.762   0.327   9.473 -0.4822  2.3612 -1.0812
 5957SOL    HW219313   5.634   0.293   9.400 -0.3410 -1.5049  0.2496
 5958SOL     OW19314   5.394   5.870   3.464  0.5309 -0.1029 -0.8042
 5958SOL    HW119315   5.459   5.842   3.399  1.7579 -0.0955  0.3718
 5958SOL    HW219316   5.346   5.940   3.421 -0.2122 -1.5666 -2.5136
 5959SOL     OW19317   3.942   3.871   2.626  0.0180 -0.1246  0.5040
 5959SOL    HW119318   3.908   3.960   2.634 -0.4247 -0.3640  1.3899
 5959SOL    HW219319   3.954   3.859   2.532  2.2430  1.6425  0.4776
 5960SOL     OW19320   3.012   3.345   1.486  0.0765  0.1024 -0.1159
 5960SOL    HW119321   2.968   3.287   1.424  1.3917 -0.2441 -0.7622
 5960SOL    HW219322   3.014   3.430   1.440  0.2062  0.0844 -0.1428
 5961SOL     OW19323   5.466   1.601   4.050  0.1412  0.4862 -0.5703
 5961SOL    HW119324   5.383   1.649   4.063  0.2550  1.3612 -2.6677
 5961SOL    HW219325   5.522   1.663   4.004  1.1893 -0.8326 -1.1352
 5962SOL     OW19326   5.657   6.508   9.782 -0.0087  0.0409  0.0570
 5962SOL    HW119327   5.751   6.489   9.789 -0.3463 -1.4728  0.9727
 5962SOL    HW219328   5.641   6.574   9.849  0.1800 -0.6630  0.8075
 5963SOL     OW19329   2.850   4.802   1.143  0.2404  0.1354  0.1982
 5963SOL    HW119330   2.801   4.829   1.221  1.3200  3.1809 -0.0319
 5963SOL    HW219331   2.894   4.721   1.169 -2.2573 -0.9051  1.4860
 5964SOL     OW19332   0.380   5.766   9.047  0.0956  0.5772  0.4907
 5964SOL    HW119333   0.413   5.776   8.958 -1.7349  1.8543 -0.1044
 5964SOL    HW219334   0.447   5.806   9.103  1.9058 -1.4095 -0.1055
 5965SOL     OW19335   3.769   0.408  12.082 -0.1881  0.0211  0.9911
 5965SOL    HW119336   3.846   0.409  12.026 -0.5966 -3.7467  0.1020
 5965SOL    HW219337   3.695   0.414  12.021 -0.6066 -1.8411  1.2620
 5966SOL     OW19338   3.985   7.166   8.775 -0.3470  0.2144 -0.4274
 5966SOL    HW119339   3.913   7.122   8.728 -1.7166  0.6175  1.1880
 5966SOL    HW219340   3.956   7.167   8.866  1.9160  0.0686  0.3432
 5967SOL     OW19341   2.563   5.352  11.847 -0.3224  0.7620 -0.2315
 5967SOL    HW119342   2.583   5.285  11.912 -1.6920 -0.6241 -1.1769
 5967SOL    HW219343   2.582   5.311  11.763 -0.7755  1.7134 -0.8132
 5968SOL     OW19344   2.759   2.847  12.378  0.4082 -0.0332  0.6150
 5968SOL    HW119345   2.667   2.823  12.363  0.4767  0.7037 -1.0938
 5968SOL    HW219346   2.783   2.797  12.457 -1.7867  0.6545  1.8081
 5969SOL     OW19347   0.088   2.529   4.692  0.1431  0.2257 -0.6388
 5969SOL    HW119348   0.021   2.532   4.760  0.3197  1.3118 -0.4971
 5969SOL    HW219349   0.041   2.504   4.613 -0.0206 -1.3010 -0.0831
 5970SOL     OW19350   7.848   4.294   2.092 -0.0925  0.4343 -0.2087
 5970SOL    HW119351   7.881   4.219   2.143  0.8703  1.7713  1.2198
 5970SOL    HW219352   7.839   4.260   2.003  1.2422 -1.1204  0.1986
 5971SOL     OW19353   5.671   2.197   7.640 -0.0128  0.0148  0.0912
 5971SOL    HW119354   5.719   2.236   7.713 -1.4754  0.6123  0.7740
 5971SOL    HW219355   5.592   2.161   7.681  1.1194 -3.5605 -0.4886
 5972SOL     OW19356   2.360   6.921   2.700 -0.4479  0.1087  0.6155
 5972SOL    HW119357   2.295   6.874   2.752 -0.2842  0.3447  1.0384
 5972SOL    HW219358   2.430   6.941   2.762  0.3349 -0.7044  0.0238
 5973SOL     OW19359   3.529   6.618   0.095 -0.2231  0.3788  0.4633
 5973SOL    HW119360   3.446   6.599   0.053 -0.8401  1.0021  1.3554
 5973SOL    HW219361   3.557   6.535   0.133  0.5978 -0.3135 -1.5507
 5974SOL     OW19362   1.494   5.446   5.221 -0.1614 -0.2685 -0.1635
 5974SOL    HW119363   1.403   5.473   5.235  0.1521  1.1394 -0.6868
 5974SOL    HW219364   1.530   5.438   5.310  0.2189  2.9432  0.1079
 5975SOL     OW19365   7.237   1.295  10.931  0.3836 -0.2430  0.3095
 5975SOL    HW119366   7.328   1.294  10.961 -0.5482 -0.8825  3.3581
 5975SOL    HW219367   7.190   1.347  10.996 -1.6479 -0.8275 -0.5977
 5976SOL     OW19368   3.246   0.711   8.638 -0.2843  0.2545  0.3984
 5976SOL    HW119369   3.152   0.726   8.626 -0.1914  0.6081  0.0861
 5976SOL    HW219370   3.254   0.676   8.726 -0.5749  1.5381  0.9609
 5977SOL     OW19371   1.568   7.664   9.333  0.2343  0.0330  0.5976
 5977SOL    HW119372   1.568   7.708   9.419  1.2429 -0.6895  0.9849
 5977SOL    HW219373   1.660   7.659   9.309 -0.0452  0.2723 -0.5734
 5978SOL     OW19374   2.332   7.969   2.425 -0.1145 -0.1293 -0.7457
 5978SOL    HW119375   2.397   8.030   2.391 -0.0782  0.5655  0.5105
 5978SOL    HW219376   2.383   7.896   2.461 -0.0883 -0.0835 -0.6917
 5979SOL     OW19377   0.996   4.150   1.756 -0.2009  0.4152 -0.1982
 5979SOL    HW119378   1.053   4.137   1.680  0.4325 -1.2934  0.5160
 5979SOL    HW219379   1.055   4.181   1.824 -0.0583 -1.3779  0.5507
 5980SOL     OW19380   6.561   6.894   3.733  0.0083 -0.2617 -0.0155
 5980SOL    HW119381   6.467   6.890   3.751  0.1188  0.9875  0.9752
 5980SOL    HW219382   6.574   6.979   3.692  0.8476  0.0512  0.8547
 5981SOL     OW19383   3.017   0.245  11.828  0.4229  0.0049 -0.5212
 5981SOL    HW119384   2.927   0.237  11.797  0.2379 -0.5823  0.1418
 5981SOL    HW219385   3.061   0.169  11.792  0.5327  0.0275 -0.4344
 5982SOL     OW19386   2.086   7.748   5.482 -0.6160 -0.3133 -0.1347
 5982SOL    HW119387   2.009   7.694   5.501 -0.9233 -0.0422 -0.5778
 5982SOL    HW219388   2.116   7.778   5.568 -0.6255 -0.9333  0.0895
 5983SOL     OW19389   2.436   7.262   3.345 -0.0307 -0.4105 -0.7281
 5983SOL    HW119390   2.478   7.187   3.303 -0.0167 -1.0033  0.3118
 5983SOL    HW219391   2.414   7.231   3.433 -0.5664  0.6210 -0.4838
 5984SOL     OW19392   7.046   1.764   2.805  0.0989 -0.3408  0.4708
 5984SOL    HW119393   6.989   1.782   2.730 -0.3983 -0.6341  0.7694
 5984SOL    HW219394   6.988   1.726   2.870 -0.1238  2.4672  2.1051
 5985SOL     OW19395   4.980   5.644   5.619  0.1564  0.0970  0.6447
 5985SOL    HW119396   4.905   5.669   5.672  1.1137  1.0753  1.5905
 5985SOL    HW219397   4.955   5.664   5.529  0.1432  2.7355  1.1724
 5986SOL     OW19398   4.889   0.087   0.889 -0.0429  0.4061  0.2074
 5986SOL    HW119399   4.933   0.009   0.924  0.2057  1.2758  1.9428
 5986SOL    HW219400   4.959   0.149   0.873 -0.4077  0.9549  0.7091
 5987SOL     OW19401   6.153   3.293   9.483  0.3062  0.5020  0.1130
 5987SOL    HW119402   6.082   3.263   9.540  0.2957 -0.5641 -0.4358
 5987SOL    HW219403   6.199   3.360   9.535 -0.1596  0.0993  1.0696
 5988SOL     OW19404   5.715   7.237   5.984 -0.5696  0.1575  0.0260
 5988SOL    HW119405   5.764   7.318   5.969  0.7900 -0.7986 -0.9349
 5988SOL    HW219406   5.637   7.246   5.931  0.4087  0.1451 -1.4771
 5989SOL     OW19407   0.218   6.302   4.912  0.2167 -0.1497  0.0123
 5989SOL    HW119408   0.185   6.241   4.977 -0.3120  0.9120  0.7740
 5989SOL    HW219409   0.309   6.318   4.938  0.1028  0.0256  0.3088
 5990SOL     OW19410   3.622   4.645   0.088 -0.1264 -0.1123 -0.4028
 5990SOL    HW119411   3.661   4.723   0.129 -3.0719  0.3836  1.8084
 5990SOL    HW219412   3.611   4.583   0.161  1.0960 -2.2190 -1.9033
 5991SOL     OW19413   7.134   5.578   0.016  0.0880  0.3062 -0.1797
 5991SOL    HW119414   7.212   5.627   0.041 -0.0945  1.2949 -1.4567
 5991SOL    HW219415   7.095   5.629  -0.055  1.5316 -3.1436 -3.7944
 5992SOL     OW19416   3.133   0.539   8.966 -0.3233  0.1667  0.2911
 5992SOL    HW119417   3.058   0.569   8.915 -0.1847  2.6157  1.3639
 5992SOL    HW219418   3.095   0.506   9.047 -0.3129  0.6302  0.4900
 5993SOL     OW19419   1.846   2.322   6.112  0.0216 -0.1198  0.3776
 5993SOL    HW119420   1.920   2.354   6.163 -0.5722 -0.8171  1.7208
 5993SOL    HW219421   1.805   2.255   6.167 -0.8146 -0.7115 -0.9003
 5994SOL     OW19422   1.097   4.324  11.849 -0.1944  0.4887  0.1683
 5994SOL    HW119423   1.025   4.369  11.891  0.5631  0.7230  1.2530
 5994SOL    HW219424   1.110   4.244  11.900  1.3323  1.2246  0.9944
 5995SOL     OW19425   7.598   2.098   2.813 -0.8316  0.2424  0.5053
 5995SOL    HW119426   7.527   2.076   2.752 -2.0040  1.9229  1.1842
 5995SOL    HW219427   7.678   2.072   2.767 -1.5152  2.8533 -2.5002
 5996SOL     OW19428   2.255   7.309   3.935 -0.9039  0.1901  0.0917
 5996SOL    HW119429   2.254   7.377   3.868 -1.2315  0.1147  0.0184
 5996SOL    HW219430   2.266   7.227   3.886  1.6669  0.3223  0.3025
 5997SOL     OW19431   4.644   2.080  11.014 -0.0862  0.1311  0.0749
 5997SOL    HW119432   4.681   2.130  10.942  0.0928  1.7080  1.1928
 5997SOL    HW219433   4.560   2.123  11.031  0.2110  0.2812  1.2584
 5998SOL     OW19434   4.901   5.152   9.363  0.7567 -0.5542 -0.7592
 5998SOL    HW119435   4.938   5.224   9.414 -0.8352  0.9231 -1.6149
 5998SOL    HW219436   4.913   5.179   9.272  0.9139 -1.7939 -1.1205
 5999SOL     OW19437   7.736   5.966   6.494 -0.8742 -0.2423 -0.3527
 5999SOL    HW119438   7.748   6.035   6.559 -1.2778  0.4308 -0.9849
 5999SOL    HW219439   7.688   5.898   6.542 -0.7147  0.0252  0.1999
 6000SOL     OW19440   6.857   1.999   4.556 -0.4776 -0.0509 -0.0262
 6000SOL    HW119441   6.846   2.048   4.475 -0.1106  0.1872  0.0678
 6000SOL    HW219442   6.799   1.923   4.546 -0.3829 -0.0593 -0.5384
 6001SOL     OW19443   5.958   1.956  10.984  0.1686 -0.2770 -0.2184
 6001SOL    HW119444   5.868   1.956  10.950 -0.3318 -0.8459  1.0332
 6001SOL    HW219445   6.010   1.993  10.913 -1.5474  3.8921  0.4059
 6002SOL     OW19446   1.537   7.205   3.185  0.7529  0.0596 -0.1801
 6002SOL    HW119447   1.573   7.290   3.157  4.2455 -1.9706 -2.5562
 6002SOL    HW219448   1.606   7.166   3.237 -0.8799 -1.3175  1.0457
 6003SOL     OW19449   5.649   6.695   7.380 -0.2794 -0.0064  0.2236
 6003SOL    HW119450   5.604   6.618   7.345  0.6455  0.1970 -1.5087
 6003SOL    HW219451   5.736   6.693   7.340  0.4272  0.9304  1.6207
 6004SOL     OW19452   1.608   0.367   3.235  0.0846  0.3782  0.4119
 6004SOL    HW119453   1.588   0.395   3.324 -0.0768  2.7871 -0.3243
 6004SOL    HW219454   1.702   0.351   3.235 -0.1960 -1.5515  1.4573
 6005SOL     OW19455   4.499   7.036   9.249  0.8540 -0.3486  0.6485
 6005SOL    HW119456   4.458   7.117   9.220  1.1577 -0.3616  0.1784
 6005SOL    HW219457   4.543   7.001   9.171  0.5452 -1.0793  0.7924
 6006SOL     OW19458   0.209   2.239   7.556 -0.2458 -0.1306 -0.1426
 6006SOL    HW119459   0.158   2.319   7.571 -0.7051  0.1457 -2.6628
 6006SOL    HW219460   0.180   2.179   7.624 -0.8358  1.4211  1.0395
 6007SOL     OW19461   7.205   5.245   6.808 -0.4577 -0.0107  0.3437
 6007SOL    HW119462   7.159   5.229   6.890 -2.2944 -1.0294 -0.8104
 6007SOL    HW219463   7.144   5.216   6.740  1.3417 -0.0309 -1.3639
 6008SOL     OW19464   0.129   3.534   1.849 -0.2192 -0.8641 -0.2141
 6008SOL    HW119465   0.223   3.547   1.861 -0.2136  0.6765 -1.5245
 6008SOL    HW219466   0.122   3.492   1.763 -0.7601  0.0312 -0.6179
 6009SOL     OW19467   2.710   2.498   4.182  0.3603 -0.6379 -0.3066
 6009SOL    HW119468   2.707   2.447   4.102 -0.2259 -1.1595  0.0390
 6009SOL    HW219469   2.779   2.457   4.234  1.6052  0.4654 -1.0345
 6010SOL     OW19470   2.211   2.659   7.895 -0.0827 -0.3479  0.7639
 6010SOL    HW119471   2.242   2.576   7.858  1.1452 -0.2440  1.4997
 6010SOL    HW219472   2.275   2.723   7.865 -1.7828  0.6527 -0.9907
 6011SOL     OW19473   4.310   0.302   1.587 -0.2037 -0.2916  0.1703
 6011SOL    HW119474   4.316   0.216   1.545 -1.7596 -0.6193  0.5364
 6011SOL    HW219475   4.227   0.338   1.557  0.9531  1.6584 -0.9277
 6012SOL     OW19476   0.530   1.018   3.806 -0.2395  0.1025  0.1485
 6012SOL    HW119477   0.603   1.080   3.810 -0.1157  0.1463 -1.7818
 6012SOL    HW219478   0.475   1.050   3.734 -0.1365 -2.0253 -0.9684
 6013SOL     OW19479   7.543   0.120   6.277 -0.1852  0.1765 -0.0287
 6013SOL    HW119480   7.525   0.086   6.364  0.8831  0.3015  0.2584
 6013SOL    HW219481   7.505   0.208   6.278  1.1844  0.7961  0.8844
 6014SOL     OW19482   3.547   1.895   9.340  0.5198  0.4462  0.3907
 6014SOL    HW119483   3.618   1.955   9.320  0.8640 -0.6380 -2.0653
 6014SOL    HW219484   3.580   1.809   9.315 -1.2340 -0.2413  0.2468
 6015SOL     OW19485   7.225   5.399   1.045  1.1528 -0.3523 -0.3880
 6015SOL    HW119486   7.285   5.333   1.011 -0.2471 -1.7205 -0.3531
 6015SOL    HW219487   7.138   5.358   1.038  0.4086  0.8285  1.2066
 6016SOL     OW19488   6.385   3.445   3.938  0.2946 -0.2841  0.4447
 6016SOL    HW119489   6.385   3.401   3.853  2.8165 -1.2603  0.8501
 6016SOL    HW219490   6.474   3.480   3.947 -0.8881  2.8666  1.2262
 6017SOL     OW19491   0.744   7.689   5.847 -0.3242 -0.6595 -0.2391
 6017SOL    HW119492   0.697   7.610   5.821 -0.9143 -0.5199  0.3672
 6017SOL    HW219493   0.765   7.674   5.940 -1.3102  0.2915  0.1617
 6018SOL     OW19494   3.854   7.306   4.488  0.1772 -0.2712  0.0356
 6018SOL    HW119495   3.865   7.297   4.582 -0.2176  2.8596  0.5115
 6018SOL    HW219496   3.763   7.281   4.471  0.3463 -1.1572  0.4276
 6019SOL     OW19497   7.647   7.018   7.965 -0.1552 -0.2597 -0.4492
 6019SOL    HW119498   7.635   6.929   7.930 -0.0681 -0.1798 -0.6835
 6019SOL    HW219499   7.611   7.075   7.898  1.0856 -0.0389 -0.9546
 6020SOL     OW19500   5.939   2.236   8.531 -0.6363 -0.4764  0.4879
 6020SOL    HW119501   5.864   2.288   8.560 -0.9131  0.5223 -1.8453
 6020SOL    HW219502   5.958   2.179   8.606 -3.7359 -0.8056  1.1650
 6021SOL     OW19503   7.818   6.974   2.680  0.4163 -0.0458  0.1270
 6021SOL    HW119504   7.777   7.057   2.702 -0.1170  0.1675 -1.5799
 6021SOL    HW219505   7.907   6.981   2.715  0.2734  1.0951  0.2881
 6022SOL     OW19506   4.099   0.680   0.108 -0.1357  0.1780  0.0637
 6022SOL    HW119507   4.026   0.735   0.079 -0.0936 -0.9031 -2.3118
 6022SOL    HW219508   4.066   0.590   0.100  0.7083 -0.2516  1.1887
 6023SOL     OW19509   1.143   0.122   9.505  0.7573  0.5820 -0.0960
 6023SOL    HW119510   1.097   0.205   9.517  3.4676  2.5198 -1.8089
 6023SOL    HW219511   1.130   0.075   9.587 -1.0210  2.6184  0.8938
 6024SOL     OW19512   2.398   6.288   6.732 -0.1744  1.0292  0.1560
 6024SOL    HW119513   2.352   6.232   6.670  1.1741  0.2265 -0.1738
 6024SOL    HW219514   2.331   6.316   6.795 -1.2268  0.5150 -0.7103
 6025SOL     OW19515   7.193   2.599   6.836 -0.2672 -0.5286  0.5692
 6025SOL    HW119516   7.288   2.603   6.829 -0.0711 -2.3216  1.4379
 6025SOL    HW219517   7.167   2.685   6.866  1.0272  0.1372 -0.1247
 6026SOL     OW19518   6.374   4.142  12.139  0.7480  0.1832  0.6545
 6026SOL    HW119519   6.414   4.187  12.214 -1.2373 -0.5175  2.2347
 6026SOL    HW219520   6.283   4.171  12.139  0.1989 -1.4106 -0.2198
 6027SOL     OW19521   6.704   4.008   9.547  0.1084  0.4337  0.2394
 6027SOL    HW119522   6.661   3.994   9.631  0.2123 -1.6248  0.0055
 6027SOL    HW219523   6.789   4.046   9.569  0.6037 -1.1294  1.1901
 6028SOL     OW19524   1.548   0.371   0.088 -0.0573  0.0046 -0.3232
 6028SOL    HW119525   1.594   0.427   0.150  1.3886  0.3231 -1.6083
 6028SOL    HW219526   1.456   0.396   0.096  0.3893  1.6148  0.0954
 6029SOL     OW19527   4.486   6.038   7.407 -0.1946 -0.1777  0.3195
 6029SOL    HW119528   4.523   6.000   7.327 -1.9585 -0.2901 -0.4931
 6029SOL    HW219529   4.561   6.074   7.454  0.9646 -0.7218 -1.0569
 6030SOL     OW19530   5.715   0.813   4.526 -0.2370  0.2209  0.3023
 6030SOL    HW119531   5.754   0.890   4.566 -2.7630  0.1101  3.4012
 6030SOL    HW219532   5.624   0.814   4.556 -1.5705 -1.6744 -3.1110
 6031SOL     OW19533   5.396   3.214   0.256  0.2635 -0.3275 -0.1394
 6031SOL    HW119534   5.476   3.266   0.246 -0.8364  1.1296 -2.0731
 6031SOL    HW219535   5.334   3.253   0.194 -1.6326 -2.0558  0.5520
 6032SOL     OW19536   1.872   5.319   5.303 -0.2251  0.0227  0.0291
 6032SOL    HW119537   1.819   5.241   5.316  0.3830 -0.1726  1.4228
 6032SOL    HW219538   1.819   5.390   5.341  0.5905 -0.2102  1.6492
 6033SOL     OW19539   6.307   5.155   3.719  0.2638  0.2040  0.5683
 6033SOL    HW119540   6.351   5.234   3.688 -0.0026  0.1601  0.0629
 6033SOL    HW219541   6.366   5.083   3.697  0.1801  0.1948  0.3737
 6034SOL     OW19542   4.647   3.078  11.790  0.1471  0.4138  0.2594
 6034SOL    HW119543   4.620   2.995  11.831 -1.1297  1.6059  1.9652
 6034SOL    HW219544   4.714   3.052  11.727  0.4486 -1.8337  1.3776
 6035SOL     OW19545   4.650   2.451   1.029  0.7999  0.1831 -0.1522
 6035SOL    HW119546   4.642   2.515   0.958  0.6249 -0.8221 -1.0698
 6035SOL    HW219547   4.663   2.503   1.107 -2.3515  1.5373 -0.3903
 6036SOL     OW19548   1.239   5.469   0.377 -0.3281 -0.4689 -0.2482
 6036SOL    HW119549   1.182   5.488   0.451  0.3582 -1.2889  0.5116
 6036SOL    HW219550   1.270   5.554   0.347 -2.9978  0.1522 -1.5718
 6037SOL     OW19551   4.592   5.443   3.529  0.4306 -0.2399  0.1548
 6037SOL    HW119552   4.536   5.505   3.482 -2.2667 -3.1618 -0.8794
 6037SOL    HW219553   4.660   5.418   3.466  0.8329  0.7775  0.1800
 6038SOL     OW19554   5.707   4.223   9.557  0.0160  0.6168 -0.3404
 6038SOL    HW119555   5.746   4.237   9.470 -2.7564  1.2506 -1.5628
 6038SOL    HW219556   5.729   4.132   9.578  2.4403  1.0423 -0.7169
 6039SOL     OW19557   2.805   5.194   4.083  0.6692  0.1264  0.1618
 6039SOL    HW119558   2.893   5.232   4.079  1.7453 -2.1305  1.1070
 6039SOL    HW219559   2.809   5.119   4.023 -0.7658  0.2332 -0.1014
 6040SOL     OW19560   0.279   1.903   4.417 -0.2981  0.1744 -0.5144
 6040SOL    HW119561   0.278   1.915   4.322  1.2948 -2.0747 -0.8919
 6040SOL    HW219562   0.348   1.962   4.448 -1.3691  1.5228 -0.5943
 6041SOL     OW19563   5.634   6.393   5.557 -0.0814  0.5591  0.3645
 6041SOL    HW119564   5.637   6.487   5.574 -0.3752  0.9590 -1.6193
 6041SOL    HW219565   5.541   6.370   5.559 -0.1134  0.5917 -0.5213
 6042SOL     OW19566   5.889   2.886   4.610  0.2124  0.1685 -0.1870
 6042SOL    HW119567   5.826   2.956   4.595 -0.9490 -0.8123 -0.0354
 6042SOL    HW219568   5.835   2.809   4.627  1.4609 -0.5540  0.6211
 6043SOL     OW19569   5.954   2.241  12.342 -0.5223 -0.0460  0.0519
 6043SOL    HW119570   5.979   2.271  12.254 -1.5772 -0.8336 -0.5321
 6043SOL    HW219571   6.023   2.180  12.367  0.9692  1.8184  0.7249
 6044SOL     OW19572   5.812   4.398   0.954 -0.2743  0.3281 -0.0160
 6044SOL    HW119573   5.779   4.309   0.938  0.8752 -0.0933 -0.0892
 6044SOL    HW219574   5.831   4.432   0.866  1.3821 -0.1826  0.1166
 6045SOL     OW19575   5.256   2.604   5.126  0.3170  0.6993 -0.4505
 6045SOL    HW119576   5.267   2.563   5.041 -1.2166 -1.1719  0.1883
 6045SOL    HW219577   5.225   2.693   5.107 -1.4592 -0.1662 -1.8543
 6046SOL     OW19578   2.893   2.195   9.889 -0.3532 -0.4052  0.1799
 6046SOL    HW119579   2.966   2.169   9.832 -1.2545 -1.7213 -0.4314
 6046SOL    HW219580   2.924   2.175   9.977  0.7794  0.9735  0.1366
 6047SOL     OW19581   6.220   6.642   9.324 -0.0169  0.4398  0.3563
 6047SOL    HW119582   6.261   6.667   9.241  0.5341 -1.0787  0.1490
 6047SOL    HW219583   6.132   6.614   9.299 -0.0668  0.5865  0.3682
 6048SOL     OW19584   0.685   6.833   3.530 -0.0284 -0.1784 -0.4779
 6048SOL    HW119585   0.741   6.773   3.578  0.5614  1.1047  0.4947
 6048SOL    HW219586   0.694   6.917   3.576 -0.0851  0.8954 -2.3339
 6049SOL     OW19587   7.696   1.233   1.200  0.6159 -0.3989  0.2613
 6049SOL    HW119588   7.726   1.324   1.207 -1.1492  0.1777  0.9850
 6049SOL    HW219589   7.713   1.195   1.286  0.2183 -0.3719  0.3534
 6050SOL     OW19590   1.181   4.695  11.844 -0.1926 -0.0746 -0.6288
 6050SOL    HW119591   1.209   4.648  11.765  0.3230  0.5920 -0.8518
 6050SOL    HW219592   1.091   4.721  11.825 -0.8605 -1.8309 -0.0923
 6051SOL     OW19593   2.760   5.856  12.253  0.1862 -0.5629  0.3017
 6051SOL    HW119594   2.787   5.946  12.271  0.8655 -0.5702 -0.5882
 6051SOL    HW219595   2.803   5.835  12.170 -1.9103 -0.8716 -0.7866
 6052SOL     OW19596   3.034   5.367   9.783 -0.1163  0.3301  0.1238
 6052SOL    HW119597   2.987   5.366   9.866  0.0752 -0.5719  0.2341
 6052SOL    HW219598   3.080   5.451   9.782  0.2289  0.1592  1.1234
 6053SOL     OW19599   4.673   7.693   4.949 -0.9448 -0.6312  0.1868
 6053SOL    HW119600   4.653   7.615   4.897 -2.0645  0.1236 -0.5413
 6053SOL    HW219601   4.677   7.764   4.886  0.6582 -0.1559  0.7675
 6054SOL     OW19602   1.999   2.478  10.569 -0.1119 -0.4243  0.1963
 6054SOL    HW119603   1.971   2.553  10.622  0.4095  0.1918 -0.3841
 6054SOL    HW219604   2.018   2.515  10.483 -0.9946 -1.4173 -0.4585
 6055SOL     OW19605   2.923   2.594  11.768 -0.4274 -0.0949 -0.0893
 6055SOL    HW119606   2.995   2.584  11.831 -0.2156  0.9829 -0.1399
 6055SOL    HW219607   2.936   2.681  11.731 -1.0945 -0.3500 -0.9518
 6056SOL     OW19608   5.598   6.042   5.121  0.2082 -0.8784 -0.4076
 6056SOL    HW119609   5.678   6.071   5.077 -0.4166  1.4300 -0.1733
 6056SOL    HW219610   5.528   6.092   5.079 -0.7523 -0.7627  1.2392
 6057SOL     OW19611   3.623   2.557   4.207 -0.0116 -0.2337 -0.2139
 6057SOL    HW119612   3.653   2.469   4.231  1.6983  0.0143 -1.3010
 6057SOL    HW219613   3.600   2.598   4.290 -0.2908 -1.5123  0.3586
 6058SOL     OW19614   4.348   6.470   4.421 -0.2957  0.1423  0.0030
 6058SOL    HW119615   4.303   6.386   4.414 -2.5390  0.7593  4.1684
 6058SOL    HW219616   4.441   6.447   4.426 -0.6686 -1.8382 -1.0770
 6059SOL     OW19617   0.338   5.386   8.322 -0.1031  0.2808 -0.1284
 6059SOL    HW119618   0.347   5.477   8.350 -0.8780  0.2506  0.2404
 6059SOL    HW219619   0.281   5.346   8.388 -0.7779 -0.1608 -0.9607
 6060SOL     OW19620   4.477   6.126   5.419 -0.8837  1.1224  0.1165
 6060SOL    HW119621   4.450   6.140   5.329  0.0839 -0.4446 -0.4595
 6060SOL    HW219622   4.434   6.196   5.469 -2.9758  0.8921 -1.2667
 6061SOL     OW19623   0.824   7.314   4.665  0.0956  0.0081 -0.5911
 6061SOL    HW119624   0.785   7.227   4.669  0.4131 -0.1279 -0.3790
 6061SOL    HW219625   0.759   7.372   4.704  0.4217 -0.3283  0.4892
 6062SOL     OW19626   5.441   1.218   6.278  0.1195 -0.4335  0.0758
 6062SOL    HW119627   5.405   1.132   6.258  0.1271  0.0024 -2.0330
 6062SOL    HW219628   5.465   1.213   6.371 -0.3061 -2.5272  0.1213
 6063SOL     OW19629   0.275   1.819   8.400  0.1079  0.2520 -0.0267
 6063SOL    HW119630   0.343   1.763   8.363 -0.0482 -1.1597  1.7161
 6063SOL    HW219631   0.231   1.764   8.465 -0.4922  2.1976  1.2998
 6064SOL     OW19632   6.866   6.397   9.357  0.5841 -0.0223  0.4013
 6064SOL    HW119633   6.899   6.458   9.293  1.2498 -0.5715  0.2101
 6064SOL    HW219634   6.880   6.310   9.318 -0.5790 -0.2929  0.5481
 6065SOL     OW19635   0.380   4.511   1.693 -0.2017  0.2212  0.4052
 6065SOL    HW119636   0.359   4.578   1.627  0.9682  0.0453 -0.1675
 6065SOL    HW219637   0.299   4.461   1.702 -1.2449  1.9541  1.1664
 6066SOL     OW19638   3.064   3.415   0.545 -0.4149 -0.4980 -0.0093
 6066SOL    HW119639   2.974   3.382   0.548 -1.1739  1.5077  1.6034
 6066SOL    HW219640   3.058   3.498   0.498  0.2579  0.4052  1.4055
 6067SOL     OW19641   3.502   6.467   0.706  0.7112 -0.1687 -0.0073
 6067SOL    HW119642   3.559   6.513   0.645 -0.6365  0.5739 -0.7449
 6067SOL    HW219643   3.434   6.530   0.728 -1.5517 -1.8999 -1.5313
 6068SOL     OW19644   3.786   2.027   8.941  0.6196  0.0498 -0.2969
 6068SOL    HW119645   3.840   2.107   8.939  1.0177 -0.2196 -0.4534
 6068SOL    HW219646   3.735   2.035   9.021  0.0513  0.8546 -0.7178
 6069SOL     OW19647   3.964   6.836   2.818 -0.1836  0.4650 -0.3684
 6069SOL    HW119648   4.049   6.835   2.775  0.1577 -0.1511  0.2996
 6069SOL    HW219649   3.944   6.744   2.834 -0.4161  0.6644  0.5549
 6070SOL     OW19650   2.278   2.907   8.703 -0.0061  0.2501  0.1922
 6070SOL    HW119651   2.323   2.840   8.651 -0.2636  0.3972 -0.2245
 6070SOL    HW219652   2.219   2.950   8.641  0.0576  0.7730  0.4913
 6071SOL     OW19653   0.431   4.695  11.279 -0.4325  0.3228  0.1748
 6071SOL    HW119654   0.443   4.732  11.192  0.2702 -1.5578 -0.5781
 6071SOL    HW219655   0.389   4.765  11.329  1.3891  2.3275 -0.9594
 6072SOL     OW19656   6.233   0.357   2.662  0.5201 -0.3696  0.0895
 6072SOL    HW119657   6.182   0.410   2.601  1.0373 -0.3837 -0.3711
 6072SOL    HW219658   6.178   0.282   2.682 -0.5926  0.7681  1.4464
 6073SOL     OW19659   5.202   2.444   2.218 -0.0088  0.0700 -0.6626
 6073SOL    HW119660   5.151   2.516   2.180  0.2645 -0.1629 -1.4864
 6073SOL    HW219661   5.152   2.417   2.295 -0.3520  0.8345 -0.6069
 6074SOL     OW19662   6.511   6.292  10.811 -0.1302  0.0287  0.1791
 6074SOL    HW119663   6.504   6.236  10.734 -0.9183  0.5015 -0.1095
 6074SOL    HW219664   6.448   6.256  10.873 -1.8710  1.5063 -0.6233
 6075SOL     OW19665   2.171   3.961   2.304 -0.3241  0.0865 -0.1287
 6075SOL    HW119666   2.260   3.993   2.289  0.0450 -0.6545  0.4346
 6075SOL    HW219667   2.126   4.036   2.344  0.2749  0.2103  0.3395
 6076SOL     OW19668   6.784   2.543   0.697  0.2382 -0.4058  0.1156
 6076SOL    HW119669   6.842   2.520   0.770  1.5677 -0.8774 -1.0418
 6076SOL    HW219670   6.730   2.614   0.731  1.7351  0.2949  1.1712
 6077SOL     OW19671   0.869   3.964   2.921  0.6611  0.0663 -0.9863
 6077SOL    HW119672   0.862   4.041   2.864  1.2179  0.3762 -0.6449
 6077SOL    HW219673   0.958   3.931   2.905  0.2876 -0.7499 -1.4309
 6078SOL     OW19674   3.114   1.354   0.498  0.5588  0.0538 -0.1841
 6078SOL    HW119675   3.040   1.352   0.436 -0.0483 -1.0053  0.5394
 6078SOL    HW219676   3.089   1.421   0.562  0.6786  0.3771 -0.4717
 6079SOL     OW19677   6.435   0.232  10.965 -0.0674  0.4297 -0.1651
 6079SOL    HW119678   6.520   0.205  10.930 -0.2318  0.5168 -0.6526
 6079SOL    HW219679   6.371   0.184  10.912 -0.3680  1.6456 -0.9773
 6080SOL     OW19680   0.290   7.306   5.497  0.7951  0.0208  0.2908
 6080SOL    HW119681   0.351   7.258   5.554  1.4095  0.1759 -0.2339
 6080SOL    HW219682   0.294   7.396   5.529 -0.6315 -0.2984  1.5141
 6081SOL     OW19683   5.235   1.488  10.959  0.0726  0.3235 -0.0765
 6081SOL    HW119684   5.163   1.471  11.020 -0.8364  0.1375 -1.1702
 6081SOL    HW219685   5.211   1.440  10.879  2.1273 -0.9959  0.0057
 6082SOL     OW19686   1.873   0.384  12.010 -0.3064  0.2681  0.2777
 6082SOL    HW119687   1.879   0.305  11.955 -0.4591  0.5928 -0.2123
 6082SOL    HW219688   1.862   0.350  12.099 -0.6068 -0.2666  0.0442
 6083SOL     OW19689   0.399   6.815   1.429 -0.6426  0.0990  0.7384
 6083SOL    HW119690   0.439   6.901   1.445  0.2170 -0.4594  1.7443
 6083SOL    HW219691   0.313   6.835   1.393 -0.6118  1.3909  1.3104
 6084SOL     OW19692   6.876   5.999   1.019  0.4767 -0.6730  0.6286
 6084SOL    HW119693   6.914   5.999   0.931 -0.4354 -2.3757  0.1835
 6084SOL    HW219694   6.864   5.906   1.040 -1.1988 -0.2587  1.7164
 6085SOL     OW19695   2.259   0.113   8.152  0.2568  0.3441  0.0298
 6085SOL    HW119696   2.351   0.088   8.149  0.2815  0.4905 -1.5508
 6085SOL    HW219697   2.215   0.039   8.193  1.0613  0.2044  0.6558
 6086SOL     OW19698   5.320   6.260  11.490 -0.7625  0.0119  0.0510
 6086SOL    HW119699   5.274   6.188  11.533  0.6672  0.3498  2.2866
 6086SOL    HW219700   5.275   6.339  11.521  0.7683  0.3029  1.7023
 6087SOL     OW19701   6.432   7.543   7.267  0.0427  0.5686 -0.0164
 6087SOL    HW119702   6.373   7.523   7.339  0.5525 -1.2588 -0.0462
 6087SOL    HW219703   6.449   7.637   7.275 -1.9626  0.9287  0.6340
 6088SOL     OW19704   4.003   1.829  11.942 -0.1489  0.4672 -0.1758
 6088SOL    HW119705   3.916   1.835  11.903 -0.8175 -2.8102  0.4989
 6088SOL    HW219706   3.986   1.830  12.037  0.8500  2.3026  0.0241
 6089SOL     OW19707   5.045   7.638   0.695  0.0236 -0.0180 -0.2826
 6089SOL    HW119708   4.991   7.581   0.751  0.5119 -0.0699  0.1426
 6089SOL    HW219709   5.038   7.599   0.608 -1.1575  0.3535 -0.3700
 6090SOL     OW19710   3.311   6.694  12.406  0.1081  0.2348 -1.1200
 6090SOL    HW119711   3.326   6.776  12.453  0.2155  0.5905 -1.7520
 6090SOL    HW219712   3.264   6.721  12.327 -1.3849 -0.5285 -0.5193
 6091SOL     OW19713   1.818   3.466   5.983  0.0313 -0.0823  0.1925
 6091SOL    HW119714   1.757   3.393   5.979  0.4518 -0.4446  0.3648
 6091SOL    HW219715   1.860   3.458   6.069 -0.0593  0.4703  0.2919
 6092SOL     OW19716   0.259   0.827   8.400  0.5990  0.3683 -0.1624
 6092SOL    HW119717   0.203   0.891   8.356  0.7008  0.7489  0.2524
 6092SOL    HW219718   0.304   0.878   8.468  1.5755  0.1094 -0.5940
 6093SOL     OW19719   7.619   2.980   1.412  0.1552  0.2311  0.1903
 6093SOL    HW119720   7.602   3.057   1.358  2.1930  0.9191  0.4405
 6093SOL    HW219721   7.559   2.914   1.379 -0.8665  1.5800 -0.7827
 6094SOL     OW19722   5.389   5.452   9.107  0.1032 -0.3520  0.0050
 6094SOL    HW119723   5.456   5.502   9.062  2.0385 -1.2795  1.7109
 6094SOL    HW219724   5.403   5.362   9.079  1.5772 -1.0074  2.5462
 6095SOL     OW19725   6.084   0.864   4.682  0.1745  0.2495 -0.4735
 6095SOL    HW119726   5.997   0.904   4.681  0.7226  1.5409  0.3067
 6095SOL    HW219727   6.076   0.786   4.628 -2.6364 -2.1640  2.9843
 6096SOL     OW19728   4.580   4.525   1.909  0.1308 -0.3854 -0.0398
 6096SOL    HW119729   4.504   4.467   1.911  0.2929 -0.6548 -1.2484
 6096SOL    HW219730   4.609   4.525   1.818  1.4405 -0.1010  0.3430
 6097SOL     OW19731   5.783   1.607   8.992 -0.4552  0.0056 -0.8866
 6097SOL    HW119732   5.767   1.671   9.061 -1.0656 -0.2557 -0.7785
 6097SOL    HW219733   5.878   1.591   8.995 -0.3195  0.7784 -0.8142
 6098SOL     OW19734   2.304   3.580   3.531 -0.0102  0.0990  1.0495
 6098SOL    HW119735   2.331   3.570   3.622  0.4024 -0.5237  0.8653
 6098SOL    HW219736   2.209   3.567   3.533  0.1751 -1.4919  1.1955
 6099SOL     OW19737   4.832   0.160   7.523  0.2616  0.3738  0.1572
 6099SOL    HW119738   4.810   0.206   7.604  0.9040 -0.4397  0.8140
 6099SOL    HW219739   4.763   0.094   7.514 -0.4363  1.1769 -0.5718
 6100SOL     OW19740   6.958   0.587  10.787  0.0134 -0.5713 -0.2337
 6100SOL    HW119741   6.866   0.592  10.814 -0.2178  0.1974 -1.1451
 6100SOL    HW219742   6.956   0.540  10.703  0.2661  0.8747 -1.0808
 6101SOL     OW19743   1.212   6.809   3.973 -0.5505 -0.0535 -0.3522
 6101SOL    HW119744   1.127   6.841   3.942 -0.2176  1.9035  0.5987
 6101SOL    HW219745   1.249   6.882   4.022  0.4867 -1.7860  1.6457
 6102SOL     OW19746   6.562   0.779  12.413  0.3858 -0.6617  0.4796
 6102SOL    HW119747   6.640   0.831  12.393  0.9721 -0.9770  1.8045
 6102SOL    HW219748   6.550   0.724  12.336  1.4106 -0.5168  0.2007
 6103SOL     OW19749   2.584   6.179   3.486  0.6639 -0.6762  0.2158
 6103SOL    HW119750   2.549   6.093   3.461  0.3322 -0.7347  0.8676
 6103SOL    HW219751   2.507   6.230   3.512  0.7906  0.0142 -0.7072
 6104SOL     OW19752   7.751   2.130   1.779  0.1695 -0.2476 -0.0992
 6104SOL    HW119753   7.722   2.048   1.818  0.8370 -0.7201 -0.5864
 6104SOL    HW219754   7.671   2.182   1.771  0.2664  0.9653  4.3393
 6105SOL     OW19755   1.855   0.302  12.259 -0.1721  0.2222 -0.1843
 6105SOL    HW119756   1.885   0.317  12.349 -1.9917 -2.2053  0.9344
 6105SOL    HW219757   1.776   0.355  12.250 -1.0390 -0.9312  0.3510
 6106SOL     OW19758   5.469   3.841   7.381  0.8257 -0.1371 -0.2904
 6106SOL    HW119759   5.375   3.860   7.378  0.8272  0.3795  1.5517
 6106SOL    HW219760   5.504   3.880   7.300 -0.5580 -0.5212 -1.1050
 6107SOL     OW19761   3.254   4.753   7.494  0.8157 -0.6431  0.3867
 6107SOL    HW119762   3.317   4.742   7.423 -1.3164  0.1601 -1.7965
 6107SOL    HW219763   3.284   4.831   7.541  0.8832  0.4269 -1.3266
 6108SOL     OW19764   4.545   2.140   6.208  0.5784  0.7801  0.6863
 6108SOL    HW119765   4.569   2.155   6.300 -1.4382  1.1689  1.1951
 6108SOL    HW219766   4.455   2.107   6.212  0.8091 -0.1690 -1.1154
 6109SOL     OW19767   0.525   6.881   9.034  0.4544  0.4372  0.4495
 6109SOL    HW119768   0.617   6.870   9.060  0.1969 -0.8353  0.9139
 6109SOL    HW219769   0.490   6.792   9.031 -0.1795  0.6966 -2.0114
 6110SOL     OW19770   7.835   0.807  10.720 -0.0090  0.1221 -0.1283
 6110SOL    HW119771   7.845   0.793  10.625  0.7428 -0.9636  0.0885
 6110SOL    HW219772   7.853   0.900  10.732 -1.7400  0.6650 -1.2357
 6111SOL     OW19773   7.386   1.220   3.343 -0.0672  0.5223 -0.6631
 6111SOL    HW119774   7.323   1.281   3.381  0.4406 -0.0048  1.1028
 6111SOL    HW219775   7.437   1.273   3.282 -1.2828  1.2668 -1.0690
 6112SOL     OW19776   0.299   1.533  11.001  0.4333 -0.1381  0.2938
 6112SOL    HW119777   0.323   1.611  11.051  0.1524 -0.6218  1.2249
 6112SOL    HW219778   0.226   1.561  10.946 -0.1618  0.0982  1.1645
 6113SOL     OW19779   6.996   6.559   1.846  0.0245 -0.0733 -0.8225
 6113SOL    HW119780   7.031   6.523   1.764 -0.2300 -1.3520 -0.3944
 6113SOL    HW219781   7.048   6.638   1.862  0.2156  0.0853 -2.0990
 6114SOL     OW19782   5.259   0.373   8.423 -0.3106 -0.0490 -0.2292
 6114SOL    HW119783   5.179   0.330   8.395  0.2214 -1.1454 -0.1373
 6114SOL    HW219784   5.233   0.463   8.445 -1.3489 -0.1607 -0.9561
 6115SOL     OW19785   7.177   6.186   2.789 -0.0114  0.8028  0.5018
 6115SOL    HW119786   7.266   6.155   2.808  0.2353  1.3951  0.3215
 6115SOL    HW219787   7.123   6.148   2.858  0.6508  1.8040  1.6056
 6116SOL     OW19788   7.488   5.858   2.038  0.1038 -0.3484  0.4056
 6116SOL    HW119789   7.535   5.776   2.030  1.7659  0.5532  0.4842
 6116SOL    HW219790   7.424   5.857   1.967 -1.0008 -2.3516  1.3426
 6117SOL     OW19791   3.424   4.547   3.210 -0.4199 -0.2349  0.3091
 6117SOL    HW119792   3.421   4.634   3.251 -0.9217 -0.2010  0.1964
 6117SOL    HW219793   3.334   4.516   3.213 -0.3438 -0.5059 -0.1946
 6118SOL     OW19794   0.560   0.742   2.650 -0.1014  0.0008 -0.0418
 6118SOL    HW119795   0.559   0.664   2.706 -1.2942  1.3339  1.9132
 6118SOL    HW219796   0.647   0.780   2.665 -0.5316  0.5265  1.2105
 6119SOL     OW19797   0.383   4.366   2.747 -0.2663 -0.3882 -0.1336
 6119SOL    HW119798   0.319   4.416   2.797  0.9797  0.2474  0.8913
 6119SOL    HW219799   0.373   4.276   2.779  0.9520  0.1126  1.8273
 6120SOL     OW19800   1.199   6.537   1.613 -0.1734  0.3259 -0.1766
 6120SOL    HW119801   1.284   6.545   1.570  0.6587  1.4841  1.5435
 6120SOL    HW219802   1.145   6.606   1.574 -0.5617 -0.7997 -1.7008
 6121SOL     OW19803   6.771   2.967   5.985  0.3093  0.1671  0.0323
 6121SOL    HW119804   6.791   3.016   5.905  0.0097 -0.1948 -0.2657
 6121SOL    HW219805   6.749   3.034   6.050  2.2384  0.6031  0.3259
 6122SOL     OW19806   2.880   0.870   3.963  0.2986 -0.2576 -0.0811
 6122SOL    HW119807   2.800   0.818   3.960  1.0768 -1.4538 -0.9813
 6122SOL    HW219808   2.950   0.808   3.941  1.7048  0.3323  2.3841
 6123SOL     OW19809   5.424   0.574   6.575 -0.0579  0.0055  0.5135
 6123SOL    HW119810   5.496   0.526   6.617  0.4687 -0.2438 -0.6226
 6123SOL    HW219811   5.446   0.666   6.588  0.5753 -0.0676  0.0277
 6124SOL     OW19812   5.785   0.158   0.757  0.1511  0.6609 -0.6263
 6124SOL    HW119813   5.852   0.127   0.818 -1.7030 -0.3405  1.0305
 6124SOL    HW219814   5.798   0.252   0.752  1.5816  0.5073 -0.2527
 6125SOL     OW19815   4.033   5.021   7.524 -0.4606  0.3404 -0.8038
 6125SOL    HW119816   4.079   5.101   7.549  0.1475 -0.2067 -0.1378
 6125SOL    HW219817   4.100   4.966   7.483 -0.5349 -0.4250  0.0834
 6126SOL     OW19818   5.790   6.717   9.494  0.1455 -0.2744 -0.2549
 6126SOL    HW119819   5.861   6.781   9.491  0.3598 -0.4797  0.2737
 6126SOL    HW219820   5.828   6.637   9.455  0.3472 -0.5153  0.4294
 6127SOL     OW19821   4.196   4.808   7.459 -0.1804  0.0438  0.2711
 6127SOL    HW119822   4.247   4.731   7.436 -1.2230 -0.0099 -2.0870
 6127SOL    HW219823   4.158   4.787   7.544  0.7990 -1.3621  0.3981
 6128SOL     OW19824   4.248   7.370   8.971  0.3898  0.0783  0.6155
 6128SOL    HW119825   4.152   7.371   8.968  0.4074  0.0718 -0.0182
 6128SOL    HW219826   4.274   7.444   8.916  0.7648 -0.6358 -0.1918
 6129SOL     OW19827   0.253   5.764  11.916 -0.1084 -0.3893  0.0968
 6129SOL    HW119828   0.278   5.839  11.862 -1.3510 -0.4510 -0.5983
 6129SOL    HW219829   0.318   5.697  11.895  1.2082  0.5675  0.9616
 6130SOL     OW19830   6.143   0.287   0.329 -0.0608  0.4483 -0.1213
 6130SOL    HW119831   6.092   0.318   0.255 -0.0977 -0.1987 -0.3694
 6130SOL    HW219832   6.079   0.274   0.399 -0.0219  1.0850  0.0374
 6131SOL     OW19833   1.364   3.385   7.854 -0.3931  0.4978  0.0936
 6131SOL    HW119834   1.356   3.352   7.944 -1.4018  0.1268 -0.1179
 6131SOL    HW219835   1.411   3.468   7.864  0.4554 -0.0463  0.8427
 6132SOL     OW19836   1.696   7.377   6.605  0.1137  0.1680  0.5216
 6132SOL    HW119837   1.783   7.388   6.567 -1.6388 -0.0235 -4.2335
 6132SOL    HW219838   1.659   7.465   6.606 -0.0059  0.1133  1.5863
 6133SOL     OW19839   7.302   7.939   2.743  0.7828  0.0969  0.4720
 6133SOL    HW119840   7.247   7.943   2.664  0.9602  1.3319  0.3978
 6133SOL    HW219841   7.309   8.030   2.772  2.4033 -0.0886  0.7566
 6134SOL     OW19842   4.071   3.647  12.426 -0.0160 -0.3626 -0.0081
 6134SOL    HW119843   3.999   3.595  12.462 -1.2293  0.8561 -0.5866
 6134SOL    HW219844   4.086   3.715  12.492  0.1608 -0.2282 -0.1873
 6135SOL     OW19845   0.320   6.044  11.072  0.1062  0.1077  0.7513
 6135SOL    HW119846   0.414   6.060  11.074  0.1452  0.4516 -1.2029
 6135SOL    HW219847   0.305   6.004  10.986 -1.4101 -0.8230  1.4068
 6136SOL     OW19848   5.444   6.682  12.302  0.1039  0.5093 -0.0438
 6136SOL    HW119849   5.444   6.746  12.373 -0.0860 -2.5742  2.9775
 6136SOL    HW219850   5.353   6.653  12.296  0.2710  0.1490 -1.0274
 6137SOL     OW19851   2.209   5.576   2.204  0.0988 -0.2586 -0.6005
 6137SOL    HW119852   2.287   5.520   2.205 -0.8209 -1.5929 -1.3673
 6137SOL    HW219853   2.244   5.665   2.205  1.6054 -0.8166  0.6961
 6138SOL     OW19854   7.363   1.981   9.364 -0.2512 -1.3234  0.2645
 6138SOL    HW119855   7.390   2.065   9.402  1.9979 -1.4749 -0.8298
 6138SOL    HW219856   7.298   1.947   9.426 -0.9035  0.9880  0.9747
 6139SOL     OW19857   3.321   7.128   4.167  0.2747 -0.0634  0.4602
 6139SOL    HW119858   3.271   7.093   4.241  0.7693  0.3025  0.9677
 6139SOL    HW219859   3.361   7.051   4.127 -0.0441 -0.2688  0.5309
 6140SOL     OW19860   2.361   2.943  11.237 -0.1238  0.1273  0.5910
 6140SOL    HW119861   2.447   2.943  11.195 -0.1838 -3.0931  0.2182
 6140SOL    HW219862   2.373   2.999  11.314  1.4673  1.9628 -0.8720
 6141SOL     OW19863   4.493   0.251  11.020  0.1024  0.3312 -0.0980
 6141SOL    HW119864   4.522   0.340  11.000  0.0819  0.0643 -1.3917
 6141SOL    HW219865   4.398   0.255  11.018  0.0972  0.0588 -1.3139
 6142SOL     OW19866   6.707   0.203  10.191 -0.2023  0.5253 -0.0833
 6142SOL    HW119867   6.665   0.276  10.235 -0.4193  0.3582 -0.0134
 6142SOL    HW219868   6.786   0.186  10.242 -0.1231  0.7483 -0.1322
 6143SOL     OW19869   5.897   2.625   6.225 -0.0369  0.2374 -0.3364
 6143SOL    HW119870   5.955   2.700   6.211  0.4606 -0.2587 -1.0017
 6143SOL    HW219871   5.942   2.552   6.183 -1.5427  0.0238 -1.6890
 6144SOL     OW19872   1.823   4.199   1.336 -0.0119 -0.7422 -0.4155
 6144SOL    HW119873   1.850   4.167   1.250 -1.0916 -0.7460 -0.7592
 6144SOL    HW219874   1.772   4.278   1.318 -0.4429 -0.8710  0.1983
 6145SOL     OW19875   2.220   2.526   5.720  0.0527 -0.0587 -0.0151
 6145SOL    HW119876   2.173   2.531   5.803  0.0539 -2.3166  0.1873
 6145SOL    HW219877   2.286   2.458   5.733  0.0856 -0.4433 -1.8578
 6146SOL     OW19878   0.086   5.848   9.468  0.3437  0.8170  0.3725
 6146SOL    HW119879   0.107   5.941   9.467  1.2822  0.6047 -0.7018
 6146SOL    HW219880   0.169   5.804   9.449 -0.2113 -0.2107  0.2631
 6147SOL     OW19881   7.216   7.739  10.131  0.0491 -0.5663  0.3573
 6147SOL    HW119882   7.241   7.648  10.148  1.8071 -0.0722  0.6035
 6147SOL    HW219883   7.148   7.733  10.064  1.6278 -1.9865 -1.1960
 6148SOL     OW19884   7.245   5.140   5.031  0.2268  0.5134  0.3343
 6148SOL    HW119885   7.259   5.064   4.974  0.5558  1.0898 -0.3683
 6148SOL    HW219886   7.258   5.216   4.974  0.0440  1.1046  1.0599
 6149SOL     OW19887   6.597   6.334   8.988 -0.5780 -0.1096 -0.1619
 6149SOL    HW119888   6.561   6.321   9.076 -2.0633 -0.0215 -0.7272
 6149SOL    HW219889   6.529   6.384   8.942  0.5280  0.5544 -1.1263
 6150SOL     OW19890   2.920   1.844   4.116  0.1762  0.0335  0.2889
 6150SOL    HW119891   2.897   1.765   4.165 -2.8395  0.8504  0.4212
 6150SOL    HW219892   2.910   1.914   4.180 -2.3621  0.9666 -0.9609
 6151SOL     OW19893   6.387   1.923   4.059 -0.5215 -0.1480 -0.3276
 6151SOL    HW119894   6.309   1.946   4.109 -0.1813  0.8920 -0.2607
 6151SOL    HW219895   6.448   1.996   4.074  0.8611 -1.3867  0.4431
 6152SOL     OW19896   5.475   1.371   0.166 -0.4001  0.2366  0.7771
 6152SOL    HW119897   5.534   1.298   0.186 -2.1702 -1.7440 -0.7467
 6152SOL    HW219898   5.390   1.343   0.199 -1.5406  0.6423 -1.6225
 6153SOL     OW19899   4.980   2.472   5.911 -0.3284 -0.0072 -0.1637
 6153SOL    HW119900   5.036   2.527   5.857 -2.0162  0.1740 -1.8346
 6153SOL    HW219901   5.027   2.464   5.995  1.8206  0.6650 -1.2324
 6154SOL     OW19902   5.666   0.667  10.281 -0.9040 -0.2322  0.1227
 6154SOL    HW119903   5.704   0.670  10.369 -1.8044 -1.1553  0.5760
 6154SOL    HW219904   5.741   0.672  10.222 -0.2535  0.0517  0.9537
 6155SOL     OW19905   7.915   1.195   6.705 -0.0733 -0.1291 -0.1144
 6155SOL    HW119906   7.950   1.198   6.794  1.4989 -1.4980 -0.6406
 6155SOL    HW219907   7.857   1.119   6.705  0.1769 -0.3218 -0.3341
 6156SOL     OW19908   0.813   1.276   1.341 -0.8193  0.4133  0.1168
 6156SOL    HW119909   0.882   1.292   1.277 -1.1457 -3.3718 -1.4276
 6156SOL    HW219910   0.858   1.269   1.425  0.2676  0.8206 -0.4196
 6157SOL     OW19911   6.628   4.388  12.136  0.0566 -0.0373  0.0699
 6157SOL    HW119912   6.613   4.372  12.229 -2.4874 -0.9492 -0.4066
 6157SOL    HW219913   6.608   4.305  12.094  0.7950  0.4650 -1.3499
 6158SOL     OW19914   5.038   7.667   6.483  0.3293 -0.0227  0.5004
 6158SOL    HW119915   5.039   7.610   6.560  0.7953 -0.9228 -0.1373
 6158SOL    HW219916   5.073   7.750   6.514 -0.9769  0.1417  1.6124
 6159SOL     OW19917   4.053   2.837   6.940 -0.2016  0.4547 -0.0555
 6159SOL    HW119918   4.127   2.835   6.880  0.8630  0.4506  1.1926
 6159SOL    HW219919   4.055   2.925   6.978  1.0611 -0.4316  2.1589
 6160SOL     OW19920   3.952   3.085   4.565 -0.6687 -0.4928 -0.2184
 6160SOL    HW119921   4.026   3.145   4.567 -2.0972  1.3709  1.5565
 6160SOL    HW219922   3.985   3.003   4.603  0.7609 -0.1091 -0.6044
 6161SOL     OW19923   3.463   0.040   7.535  0.3735 -0.0357  0.0280
 6161SOL    HW119924   3.376   0.018   7.501  0.4940  0.0174 -0.3215
 6161SOL    HW219925   3.505  -0.045   7.550  0.4247 -0.0565 -0.2329
 6162SOL     OW19926   0.099   4.316   7.124 -0.0090 -0.0643 -0.2852
 6162SOL    HW119927   0.095   4.257   7.199 -0.6664  1.2035  0.7367
 6162SOL    HW219928   0.147   4.392   7.157 -0.7427  0.7201 -0.9742
 6163SOL     OW19929   1.550   2.565   7.701  0.1400 -0.0250 -0.0731
 6163SOL    HW119930   1.525   2.608   7.619  0.7659  1.0389  0.2686
 6163SOL    HW219931   1.467   2.538   7.740 -0.0982 -1.9079 -1.7372
 6164SOL     OW19932   6.304   6.112   3.699 -0.1656  0.7849 -0.5612
 6164SOL    HW119933   6.326   6.058   3.623 -0.5573  0.0597 -0.1657
 6164SOL    HW219934   6.246   6.180   3.663 -0.9402  0.0168 -0.7892
 6165SOL     OW19935   5.609   4.812   0.819  0.4698 -0.0552  0.1291
 6165SOL    HW119936   5.612   4.877   0.748  1.2961 -1.7483 -1.4907
 6165SOL    HW219937   5.606   4.864   0.899  2.1698  2.0147 -1.0357
 6166SOL     OW19938   5.271   1.761  10.901 -0.0979  0.1228  0.0366
 6166SOL    HW119939   5.203   1.697  10.919 -1.3380  1.3929  0.0663
 6166SOL    HW219940   5.303   1.787  10.988  0.1224 -0.1363  0.0373
 6167SOL     OW19941   0.117   0.497   7.550  0.6525 -0.1070  0.1601
 6167SOL    HW119942   0.129   0.491   7.644  3.4563 -3.3261 -0.2081
 6167SOL    HW219943   0.177   0.566   7.522  1.3026 -0.5042  0.5617
 6168SOL     OW19944   1.506   6.567   6.481  0.4154  0.2713 -0.6809
 6168SOL    HW119945   1.549   6.550   6.397 -0.1566  0.1396 -0.9540
 6168SOL    HW219946   1.576   6.562   6.546  0.6308 -1.0407 -0.9879
 6169SOL     OW19947   3.870   2.470   7.762  0.0539 -0.5664 -0.0016
 6169SOL    HW119948   3.938   2.408   7.735  1.6665  0.4785  1.4579
 6169SOL    HW219949   3.908   2.517   7.836 -2.1931  0.2403  0.7280
 6170SOL     OW19950   2.270   4.500   5.051  0.4227  0.3377  0.4479
 6170SOL    HW119951   2.216   4.579   5.042 -1.0116 -0.6902 -0.4753
 6170SOL    HW219952   2.317   4.493   4.968 -1.3477 -1.0530 -0.5145
 6171SOL     OW19953   1.351   2.199   8.707 -0.3356 -0.1370 -0.2395
 6171SOL    HW119954   1.319   2.216   8.619 -0.2366 -0.8573 -0.4258
 6171SOL    HW219955   1.320   2.273   8.759 -0.5254  0.2167 -0.8427
 6172SOL     OW19956   6.276   2.314   2.626  0.8196  0.6121  0.0994
 6172SOL    HW119957   6.301   2.278   2.541 -0.8742 -2.1892  0.6416
 6172SOL    HW219958   6.196   2.364   2.608  0.6031  0.2306 -0.0167
 6173SOL     OW19959   3.505   2.926   0.764  0.2379  0.4238  0.1277
 6173SOL    HW119960   3.467   2.845   0.798  0.0482  0.6052  0.3534
 6173SOL    HW219961   3.487   2.991   0.832  1.4215  0.4032  0.4825
 6174SOL     OW19962   0.160   0.283   5.602  0.2465  0.1675  0.4126
 6174SOL    HW119963   0.131   0.266   5.692  2.3278 -0.2715  1.0560
 6174SOL    HW219964   0.102   0.352   5.570  0.6558  1.7019  2.7730
 6175SOL     OW19965   4.075   4.449  11.021 -0.0366 -0.2175  0.1464
 6175SOL    HW119966   4.171   4.439  11.021 -0.0168 -0.5014 -1.9248
 6175SOL    HW219967   4.059   4.513  10.951 -1.4150 -1.0900 -0.3692
 6176SOL     OW19968   7.429   1.352   5.765  0.2347  0.1350  0.5283
 6176SOL    HW119969   7.373   1.276   5.781  1.8836 -1.0707  0.8213
 6176SOL    HW219970   7.380   1.426   5.801 -1.9482 -0.5661 -0.8230
 6177SOL     OW19971   5.213   6.293   0.587 -0.2308 -0.1487  0.1316
 6177SOL    HW119972   5.119   6.279   0.582 -0.2155 -0.1734 -0.1216
 6177SOL    HW219973   5.228   6.375   0.541 -0.2696  0.4983  1.2431
 6178SOL     OW19974   2.816   4.646   0.311 -0.3949  0.6937 -0.0440
 6178SOL    HW119975   2.873   4.692   0.373  1.6546  0.2678 -1.4989
 6178SOL    HW219976   2.868   4.640   0.230 -2.1829 -0.5294 -1.1863
 6179SOL     OW19977   2.739   5.384   5.353 -0.7646  0.5350 -0.2199
 6179SOL    HW119978   2.709   5.433   5.276 -0.9117  0.8962  0.0606
 6179SOL    HW219979   2.814   5.435   5.385  0.4377 -0.5808 -1.1530
 6180SOL     OW19980   0.367   7.867   0.862 -0.8103 -0.6567  0.2065
 6180SOL    HW119981   0.463   7.864   0.863 -0.8157 -0.7801  1.0114
 6180SOL    HW219982   0.341   7.779   0.836 -0.7119 -0.5536 -0.2649
 6181SOL     OW19983   3.853   5.586   5.539 -0.1718 -0.2351 -0.2885
 6181SOL    HW119984   3.856   5.677   5.512  1.8982 -0.2604 -0.3437
 6181SOL    HW219985   3.872   5.588   5.633  0.3358 -0.6184 -0.3767
 6182SOL     OW19986   6.218   3.757   3.118  0.4009  0.5191 -0.3425
 6182SOL    HW119987   6.176   3.672   3.120  0.0125  0.7140 -0.1447
 6182SOL    HW219988   6.204   3.794   3.205  1.5652  0.3107 -0.0485
 6183SOL     OW19989   1.510   6.169   5.653  0.1865  0.2640 -0.2411
 6183SOL    HW119990   1.481   6.171   5.562 -0.1676  0.1069 -0.1362
 6183SOL    HW219991   1.432   6.197   5.702  0.3786  0.3554  0.0104
 6184SOL     OW19992   6.929   1.961   0.231 -0.1492 -0.3549 -0.1743
 6184SOL    HW119993   6.995   1.894   0.217  0.1842  0.0778 -0.7415
 6184SOL    HW219994   6.896   1.981   0.143 -1.1977 -0.7188  0.1191
 6185SOL     OW19995   5.840   5.470   8.780 -0.0056 -0.0401 -0.4385
 6185SOL    HW119996   5.771   5.522   8.739  0.5262 -0.7523 -2.3495
 6185SOL    HW219997   5.909   5.533   8.800 -0.8579  0.5508  0.7642
 6186SOL     OW19998   3.492   5.993   4.933 -0.1673 -0.7620 -0.1133
 6186SOL    HW119999   3.467   5.948   4.852  0.8588 -0.8199 -0.4114
 6186SOL    HW220000   3.587   6.000   4.928 -0.3379  2.3092 -0.5519
 6187SOL     OW20001   6.459   0.707   1.032  0.3114 -0.1108  0.1433
 6187SOL    HW120002   6.523   0.676   0.968  0.9181 -0.7326  1.0321
 6187SOL    HW220003   6.465   0.644   1.104 -1.1757 -0.0765  0.3218
 6188SOL     OW20004   7.185   0.675   7.712  0.7678 -0.2217 -0.2611
 6188SOL    HW120005   7.202   0.704   7.802  0.6053  0.2131 -0.3695
 6188SOL    HW220006   7.223   0.743   7.657 -0.9478  0.5981 -0.5056
 6189SOL     OW20007   0.847   7.801  12.444 -0.1533 -0.2071 -0.3049
 6189SOL    HW120008   0.828   7.751  12.365  0.9765 -2.8504  0.9710
 6189SOL    HW220009   0.800   7.755  12.513 -0.7169  1.7461  0.6812
 6190SOL     OW20010   3.642   7.586   9.227  0.5023  0.4850 -0.0724
 6190SOL    HW120011   3.569   7.600   9.286  0.7342 -1.6900  0.7974
 6190SOL    HW220012   3.716   7.629   9.270 -0.0570  2.1063 -0.6366
 6191SOL     OW20013   3.381   5.734  12.030  0.1994  0.4603 -0.6153
 6191SOL    HW120014   3.332   5.652  12.043  0.7686  0.3385  1.0261
 6191SOL    HW220015   3.472   5.707  12.027  0.4003  1.0319  0.0702
 6192SOL     OW20016   6.711   0.267   2.328 -0.1766 -0.0489  0.4322
 6192SOL    HW120017   6.712   0.351   2.283  3.3443  1.1636  2.4011
 6192SOL    HW220018   6.717   0.289   2.421  0.1960 -2.4599  1.0594
 6193SOL     OW20019   6.292   2.756   8.000  0.3877 -0.6335 -0.0875
 6193SOL    HW120020   6.339   2.762   7.916 -1.5861 -0.1076 -1.2148
 6193SOL    HW220021   6.242   2.837   8.006 -0.7133 -1.3418  0.8478
 6194SOL     OW20022   3.912   5.559   1.722 -0.0586 -0.2401  0.1306
 6194SOL    HW120023   3.990   5.598   1.762  0.4188 -0.6226 -0.3985
 6194SOL    HW220024   3.861   5.527   1.796 -0.1046  0.7143  0.5300
 6195SOL     OW20025   2.128   5.531   5.539 -0.9947 -0.0848  0.0087
 6195SOL    HW120026   2.171   5.564   5.618 -1.2664 -0.9955  0.5518
 6195SOL    HW220027   2.047   5.492   5.570 -2.2570  1.5863 -1.0087
 6196SOL     OW20028   5.240   6.036  10.024 -0.2183 -0.2109 -0.2079
 6196SOL    HW120029   5.276   6.072  10.105 -1.8533 -0.7348  0.8098
 6196SOL    HW220030   5.313   6.038   9.962  1.4714 -0.9563  1.6282
 6197SOL     OW20031   7.649   6.533   8.327 -0.7789  0.1691 -0.0821
 6197SOL    HW120032   7.696   6.454   8.300 -0.6151  0.7840 -1.6967
 6197SOL    HW220033   7.697   6.564   8.404 -1.0787 -1.4872  0.8226
 6198SOL     OW20034   2.700   0.195   0.412  0.2592  0.1697  0.0199
 6198SOL    HW120035   2.694   0.107   0.376  0.2979  0.1511  0.0594
 6198SOL    HW220036   2.791   0.203   0.440  0.3846  0.3931 -0.4353
 6199SOL     OW20037   5.611   7.901   8.467  0.0706  0.1588 -0.0684
 6199SOL    HW120038   5.520   7.930   8.478  0.1162  0.2310  0.1237
 6199SOL    HW220039   5.629   7.915   8.374 -0.4434 -0.8345 -0.3220
 6200SOL     OW20040   7.647   0.883  11.234  0.0216 -0.5930  0.1822
 6200SOL    HW120041   7.697   0.963  11.249  4.3574 -2.9235 -0.2368
 6200SOL    HW220042   7.606   0.864  11.318 -0.2474  1.4577  0.5601
 6201SOL     OW20043   7.456   0.765  11.410 -0.1891 -0.1836  0.2988
 6201SOL    HW120044   7.479   0.689  11.358  2.7905  0.3940  0.6169
 6201SOL    HW220045   7.360   0.769  11.405 -0.2769 -2.4718 -1.7349
 6202SOL     OW20046   3.284   5.924  10.484  0.4625 -0.2724 -0.3147
 6202SOL    HW120047   3.319   5.882  10.406  2.0736  0.8729 -0.2554
 6202SOL    HW220048   3.328   6.009  10.488 -1.5648  0.8239  0.3838
 6203SOL     OW20049   7.052   7.735   1.100 -0.2522  0.6935  0.1867
 6203SOL    HW120050   7.067   7.809   1.159  1.1856  0.9279 -0.4397
 6203SOL    HW220051   7.132   7.683   1.105 -1.2826 -0.8956  0.6810
 6204SOL     OW20052   7.239   1.112   8.746  0.3287  0.1486 -0.0134
 6204SOL    HW120053   7.298   1.131   8.819 -0.2783  0.5532  0.3753
 6204SOL    HW220054   7.280   1.037   8.701  0.3626 -0.5330  1.1247
 6205SOL     OW20055   6.995   4.916   0.211  0.3090  0.1922 -0.4372
 6205SOL    HW120056   6.913   4.869   0.224 -0.7642  2.2813  0.9399
 6205SOL    HW220057   6.978   4.975   0.138  0.4865  0.8487  0.0487
 6206SOL     OW20058   5.835   1.833   7.727 -0.1723  0.4570  0.7362
 6206SOL    HW120059   5.802   1.897   7.663 -0.9701 -0.1017  0.5828
 6206SOL    HW220060   5.892   1.776   7.675 -1.0738 -0.1940  0.4364
 6207SOL     OW20061   1.032   3.159   3.724 -0.5219  0.1679 -0.2790
 6207SOL    HW120062   1.107   3.127   3.674  0.6188  2.4623 -0.1822
 6207SOL    HW220063   0.965   3.176   3.658 -0.2187  0.0507 -0.6223
 6208SOL     OW20064   2.381   5.835   8.677  0.5019 -0.3248  0.0506
 6208SOL    HW120065   2.382   5.927   8.650 -1.8414  0.5961  2.5418
 6208SOL    HW220066   2.452   5.828   8.741  1.3187 -0.5371 -0.8677
 6209SOL     OW20067   7.862   6.588   4.179  0.2502 -0.0691  0.2676
 6209SOL    HW120068   7.879   6.642   4.256  0.3637  1.4868 -0.8151
 6209SOL    HW220069   7.768   6.566   4.185 -0.1555  1.4970 -0.0350
 6210SOL     OW20070   1.070   1.342  11.694 -0.1665 -0.7075  0.5403
 6210SOL    HW120071   1.104   1.421  11.735 -0.7774 -0.5348  0.7299
 6210SOL    HW220072   1.093   1.271  11.754 -0.2355 -0.5788  0.7175
 6211SOL     OW20073   4.968   2.192   4.936 -0.0644  0.3970  0.3006
 6211SOL    HW120074   4.928   2.144   4.864 -0.8594 -0.5669  1.3573
 6211SOL    HW220075   4.894   2.233   4.982  0.5032  1.6919  0.0886
 6212SOL     OW20076   6.229   4.904   6.573  0.4938  0.3480 -0.4659
 6212SOL    HW120077   6.165   4.924   6.505  1.6926  1.1337 -1.3989
 6212SOL    HW220078   6.232   4.983   6.627 -1.3443 -0.6812  1.3388
 6213SOL     OW20079   6.211   1.695   0.034 -0.4406  0.2474  0.5272
 6213SOL    HW120080   6.208   1.725  -0.056 -0.4153  1.7495  0.9990
 6213SOL    HW220081   6.297   1.655   0.043  0.0028  1.0972  0.1789
 6214SOL     OW20082   3.281   1.084   9.756  0.1929  0.5480  0.1234
 6214SOL    HW120083   3.346   1.052   9.819 -0.4756  0.1039  0.5989
 6214SOL    HW220084   3.290   1.179   9.759  0.3499  0.5205  0.7070
 6215SOL     OW20085   3.092   2.724   8.314  0.7922  0.1828 -0.1536
 6215SOL    HW120086   3.061   2.814   8.322 -0.8359 -0.4374  1.0996
 6215SOL    HW220087   3.122   2.717   8.224  0.2286  1.7694 -0.4995
 6216SOL     OW20088   2.192   1.116   9.325  0.1892 -0.0350  0.3800
 6216SOL    HW120089   2.137   1.141   9.400  0.3771 -0.8083  0.7929
 6216SOL    HW220090   2.281   1.138   9.353  0.2694 -0.4090  0.4341
 6217SOL     OW20091   3.784   2.097   7.677 -0.9120  0.4096 -0.0782
 6217SOL    HW120092   3.727   2.167   7.645 -0.4816  0.1356 -1.4843
 6217SOL    HW220093   3.792   2.114   7.771 -0.4917  2.5037 -0.4457
 6218SOL     OW20094   6.250   4.980  11.324 -0.2292 -0.6197 -0.0375
 6218SOL    HW120095   6.206   4.897  11.339 -1.8035  0.4443  1.7145
 6218SOL    HW220096   6.269   4.981  11.230 -3.4658 -1.4092 -0.8083
 6219SOL     OW20097   7.112   6.815  10.449  0.0711  0.3175 -0.0721
 6219SOL    HW120098   7.070   6.891  10.408  0.1019 -0.6489 -1.9666
 6219SOL    HW220099   7.177   6.786  10.385 -0.2164 -1.5621  0.4357
 6220SOL     OW20100   3.061   1.813  10.140 -0.1651 -0.3780  0.1678
 6220SOL    HW120101   3.073   1.849  10.052 -0.2272 -1.0256 -0.1151
 6220SOL    HW220102   3.147   1.819  10.181 -0.1067 -0.1886  0.0183
 6221SOL     OW20103   1.040   4.450   9.369 -0.2167 -0.2512 -0.3601
 6221SOL    HW120104   0.983   4.373   9.375 -1.1591  0.3198 -1.4905
 6221SOL    HW220105   1.067   4.467   9.459 -1.1880 -1.0168  0.1018
 6222SOL     OW20106   1.203   6.161  11.486  0.4119  0.3968 -0.4895
 6222SOL    HW120107   1.150   6.235  11.457 -0.3805  0.3804  0.8557
 6222SOL    HW220108   1.152   6.084  11.460  0.8781  0.3222 -1.2166
 6223SOL     OW20109   7.062   1.931   5.970 -0.0716 -0.3636 -0.1367
 6223SOL    HW120110   7.066   2.021   5.938 -1.2372 -0.6709 -1.1903
 6223SOL    HW220111   7.097   1.937   6.060  1.7395  0.7787 -0.8445
 6224SOL     OW20112   4.416   2.139   8.184 -0.3593  0.1958 -0.0745
 6224SOL    HW120113   4.407   2.075   8.254 -1.2518  1.8795  1.4562
 6224SOL    HW220114   4.420   2.088   8.104  1.3985 -1.8625  1.2284
 6225SOL     OW20115   1.729   2.376   3.696  0.6217 -0.2201 -0.6276
 6225SOL    HW120116   1.707   2.465   3.669  0.0435  0.3759  1.6752
 6225SOL    HW220117   1.799   2.386   3.760 -0.0239 -1.3587  0.2900
 6226SOL     OW20118   2.550   1.110   4.797  0.2415  0.0370  0.4059
 6226SOL    HW120119   2.581   1.188   4.753 -1.1250  1.1462  1.3182
 6226SOL    HW220120   2.586   1.117   4.886 -1.6162  0.7894  1.1456
 6227SOL     OW20121   7.722   2.997   5.758  0.0056  0.1404  0.3444
 6227SOL    HW120122   7.671   2.993   5.677  0.4202 -1.7451  0.1393
 6227SOL    HW220123   7.812   3.017   5.729  0.1264 -0.3922  0.3508
 6228SOL     OW20124   2.324   6.645   6.063 -0.7857  0.0813  0.0540
 6228SOL    HW120125   2.243   6.693   6.077 -0.2611  0.7358  0.9356
 6228SOL    HW220126   2.321   6.574   6.127 -1.2175 -0.6336 -0.7436
 6229SOL     OW20127   7.941   5.112   5.957 -0.0503  0.2081  0.8643
 6229SOL    HW120128   7.869   5.161   5.997  0.1044 -0.6822  2.3081
 6229SOL    HW220129   8.020   5.150   5.995  0.0581 -1.3596  2.3191
 6230SOL     OW20130   3.915   7.665   4.596  0.0829 -0.0969  0.5592
 6230SOL    HW120131   3.955   7.594   4.647 -1.1990 -1.1119  0.1987
 6230SOL    HW220132   3.978   7.683   4.526  1.2997  0.4690  1.7548
 6231SOL     OW20133   7.649   2.425   0.114 -0.3923 -0.2979  0.1991
 6231SOL    HW120134   7.573   2.380   0.152  0.6612 -2.3342  0.0423
 6231SOL    HW220135   7.661   2.383   0.029  0.1373  0.9326 -0.3569
 6232SOL     OW20136   5.130   0.904   3.129 -0.3243  0.1465 -0.7497
 6232SOL    HW120137   5.199   0.899   3.195 -2.8721  1.6090  2.2313
 6232SOL    HW220138   5.131   0.817   3.088  1.5767 -0.7391  0.9569
 6233SOL     OW20139   0.631   0.030  11.360  0.1632 -0.2999 -0.1438
 6233SOL    HW120140   0.536   0.039  11.366  0.3190  1.8506  0.0219
 6233SOL    HW220141   0.655  -0.024  11.435 -0.9298 -1.1028 -0.3471
 6234SOL     OW20142   3.273   3.273   9.115 -0.4988  0.0981  0.1020
 6234SOL    HW120143   3.337   3.282   9.185  0.8224  0.4101 -1.1091
 6234SOL    HW220144   3.228   3.358   9.113 -0.0813  0.3244  0.1501
 6235SOL     OW20145   7.029   2.907  10.592  0.6862  0.4650  0.4964
 6235SOL    HW120146   7.071   2.953  10.519 -0.4473  3.8881  1.7903
 6235SOL    HW220147   7.034   2.815  10.568 -0.1314  1.3658 -4.2000
 6236SOL     OW20148   5.485   1.580   9.067  0.1942 -0.7745 -0.9662
 6236SOL    HW120149   5.581   1.577   9.060  0.4473  2.8962 -0.9502
 6236SOL    HW220150   5.455   1.571   8.977  0.8052  1.1467 -1.4072
 6237SOL     OW20151   1.063   0.031   1.831 -0.0445  0.0093  0.0741
 6237SOL    HW120152   1.120  -0.018   1.772  1.5653  0.0788  1.4972
 6237SOL    HW220153   1.041  -0.031   1.900 -0.6510  0.3698  0.2179
 6238SOL     OW20154   1.911   5.463   7.381  0.0089  0.0984  0.1060
 6238SOL    HW120155   1.849   5.438   7.450 -0.6001 -0.0367 -0.4812
 6238SOL    HW220156   1.981   5.508   7.428  0.5117 -1.5660  1.0504
 6239SOL     OW20157   3.070   6.576   0.823  0.1334  0.0054  0.4572
 6239SOL    HW120158   3.115   6.611   0.900 -0.6520  1.8329  0.1471
 6239SOL    HW220159   3.077   6.481   0.832  3.1026  0.1788  0.9386
 6240SOL     OW20160   5.206   4.527   3.381  0.2498  0.0781 -0.2611
 6240SOL    HW120161   5.122   4.543   3.337  1.0483  3.0456 -0.9039
 6240SOL    HW220162   5.210   4.591   3.451  1.1258 -1.4177  1.1402
 6241SOL     OW20163   3.203   0.405  10.942  0.3202  0.9668 -0.0274
 6241SOL    HW120164   3.243   0.487  10.911  0.4167  0.8478 -0.2217
 6241SOL    HW220165   3.109   0.422  10.939  0.3095  0.8450 -0.7342
 6242SOL     OW20166   0.859   6.757  11.276 -0.5809 -0.4964  0.6594
 6242SOL    HW120167   0.821   6.685  11.226 -0.2218 -0.0112 -0.3321
 6242SOL    HW220168   0.825   6.836  11.235  1.9637 -0.0112 -0.7209
 6243SOL     OW20169   4.679   0.090   8.515 -0.0734  0.0530  0.0334
 6243SOL    HW120170   4.721   0.019   8.466  0.5510  1.1844 -1.1091
 6243SOL    HW220171   4.752   0.132   8.561 -0.4597 -0.0878  0.7907
 6244SOL     OW20172   3.980   3.191   0.933  0.0751 -0.6542  0.2302
 6244SOL    HW120173   4.037   3.118   0.957 -0.3090 -1.2250 -0.5528
 6244SOL    HW220174   3.894   3.152   0.921 -0.0542 -0.1569 -0.6121
 6245SOL     OW20175   7.074   5.181   1.021  0.3285  0.1072 -0.3822
 6245SOL    HW120176   7.130   5.125   1.074 -0.1837  0.9826  1.1505
 6245SOL    HW220177   7.002   5.124   0.994  0.7865 -0.4426 -0.4652
 6246SOL     OW20178   4.489   6.731   5.490  0.0556  0.6575 -0.2969
 6246SOL    HW120179   4.520   6.752   5.402 -1.3999  0.2975 -0.9278
 6246SOL    HW220180   4.560   6.759   5.548 -0.2524  3.9416 -1.2975
 6247SOL     OW20181   0.463   0.334   1.009  0.2616 -0.2437 -0.2997
 6247SOL    HW120182   0.454   0.361   0.918  0.3389  3.0655  0.5420
 6247SOL    HW220183   0.436   0.410   1.059  2.1481 -1.2317  2.4610
 6248SOL     OW20184   2.170   4.237  10.245 -0.0601  0.4050 -0.1269
 6248SOL    HW120185   2.191   4.189  10.164 -0.1560  0.6643 -0.3051
 6248SOL    HW220186   2.123   4.173  10.299  0.4384  0.0741 -0.0692
 6249SOL     OW20187   6.199   7.894   5.872  0.1924 -0.2509 -0.1259
 6249SOL    HW120188   6.190   7.935   5.786  2.1293  1.0631  0.2319
 6249SOL    HW220189   6.181   7.801   5.856 -1.5029  0.2595 -1.5202
 6250SOL     OW20190   0.409   7.365   5.029  0.4179  0.3493  0.3202
 6250SOL    HW120191   0.350   7.416   5.085  0.6226  0.4128  0.4835
 6250SOL    HW220192   0.388   7.274   5.049  1.6860  0.3470  1.8339
 6251SOL     OW20193   3.656   3.489   4.035 -1.0107 -0.0534 -0.4609
 6251SOL    HW120194   3.671   3.450   4.121 -1.1838 -1.4312 -1.0287
 6251SOL    HW220195   3.581   3.442   4.000 -0.4142 -0.1130 -1.7188
 6252SOL     OW20196   0.925   6.238   0.299 -0.4680  0.0742 -0.4634
 6252SOL    HW120197   0.939   6.333   0.291 -2.1913  0.4220  0.1765
 6252SOL    HW220198   0.918   6.222   0.393 -1.1065 -0.5280 -0.6047
 6253SOL     OW20199   0.679   4.835   4.172 -0.0782  0.2152  0.5248
 6253SOL    HW120200   0.739   4.806   4.102 -1.8580  1.0003 -1.4162
 6253SOL    HW220201   0.592   4.810   4.141 -1.0600  1.8515  1.8101
 6254SOL     OW20202   2.063   7.871   6.418  0.2093  0.0767 -0.1487
 6254SOL    HW120203   1.997   7.816   6.460 -0.2972  1.2859  0.7061
 6254SOL    HW220204   2.135   7.875   6.481  0.4855 -0.0722 -0.4525
 6255SOL     OW20205   2.904   7.808   9.087  0.0374 -0.1137  0.1105
 6255SOL    HW120206   2.872   7.749   9.155  1.5146 -1.6771 -0.4670
 6255SOL    HW220207   2.891   7.760   9.005  2.6511 -0.4029 -0.2441
 6256SOL     OW20208   5.793   5.575   6.062  0.0503  0.5420  0.0422
 6256SOL    HW120209   5.887   5.594   6.062  0.7560 -2.4511 -1.1805
 6256SOL    HW220210   5.768   5.582   5.970 -0.9662  1.2948  0.3593
 6257SOL     OW20211   1.067   1.316   9.667  0.0404  0.3956 -0.1984
 6257SOL    HW120212   1.020   1.235   9.648  0.8633  0.0109 -0.6225
 6257SOL    HW220213   0.999   1.383   9.667 -0.5719 -0.2121 -0.3834
 6258SOL     OW20214   1.105   3.501  11.177 -0.4022  0.0806 -0.4165
 6258SOL    HW120215   1.033   3.517  11.116 -1.8635 -0.9540  0.9698
 6258SOL    HW220216   1.167   3.572  11.159 -1.0779  0.1884 -2.6087
 6259SOL     OW20217   1.732   7.584   1.708  0.1151  0.4203  0.0269
 6259SOL    HW120218   1.689   7.621   1.630 -2.5331 -3.7097 -0.8330
 6259SOL    HW220219   1.661   7.576   1.772  0.8894 -1.3826  0.7239
 6260SOL     OW20220   4.305   5.239   3.883  0.1768 -0.5154  0.0598
 6260SOL    HW120221   4.237   5.231   3.816 -1.1365 -1.5364  1.4553
 6260SOL    HW220222   4.387   5.239   3.833 -0.6509 -3.1133 -1.4857
 6261SOL     OW20223   0.436   6.345  10.980 -0.1405 -0.1131  0.3481
 6261SOL    HW120224   0.460   6.258  11.012 -0.2245 -0.8170 -1.3651
 6261SOL    HW220225   0.422   6.397  11.059 -0.8897 -1.8636  1.4343
 6262SOL     OW20226   2.845   5.513   1.372 -0.0662 -0.0244 -0.0159
 6262SOL    HW120227   2.888   5.565   1.304  0.3663  1.0739  1.0602
 6262SOL    HW220228   2.810   5.578   1.433 -0.2405 -0.9828  0.9415
 6263SOL     OW20229   3.914   0.470   0.650  0.0712 -0.4747  0.2784
 6263SOL    HW120230   3.883   0.560   0.644  1.3802  0.1796  2.2800
 6263SOL    HW220231   3.867   0.423   0.581 -1.8782  1.3732  0.2680
 6264SOL     OW20232   0.704   5.904   6.440 -0.3997 -0.2124 -0.8333
 6264SOL    HW120233   0.670   5.983   6.483  1.6675 -0.1720  0.8923
 6264SOL    HW220234   0.636   5.838   6.456 -0.9936  0.5555 -0.0492
 6265SOL     OW20235   1.365   7.357   2.426  0.0747 -0.1569 -0.0811
 6265SOL    HW120236   1.294   7.381   2.367 -0.7689 -1.5612  0.3114
 6265SOL    HW220237   1.373   7.262   2.417 -1.1245 -0.6928  3.1398
 6266SOL     OW20238   1.496   1.947  12.048  0.8692 -0.5869  0.5461
 6266SOL    HW120239   1.431   2.017  12.062  1.4567 -0.0294  0.5273
 6266SOL    HW220240   1.447   1.878  12.003  0.3569 -0.0571  0.2735
 6267SOL     OW20241   6.923   4.119   6.616 -0.4528  0.2165  0.2034
 6267SOL    HW120242   6.845   4.088   6.663 -1.4395 -0.2216 -1.6252
 6267SOL    HW220243   6.992   4.119   6.682 -2.0116  0.7478  1.9348
 6268SOL     OW20244   3.956   0.786   5.022 -0.4222  0.1470 -0.3460
 6268SOL    HW120245   4.018   0.756   4.955  0.0126 -0.8366  0.4626
 6268SOL    HW220246   3.918   0.866   4.986 -0.5412 -0.5964 -1.9653
 6269SOL     OW20247   4.268   3.126   8.883  0.1997 -0.4437  0.2786
 6269SOL    HW120248   4.350   3.131   8.932 -0.2849 -0.5911  1.1149
 6269SOL    HW220249   4.200   3.120   8.950 -0.5186 -0.0777 -0.4050
 6270SOL     OW20250   3.369   0.693   6.393 -0.2660  0.1615 -0.7515
 6270SOL    HW120251   3.339   0.773   6.436  0.1856  0.1462 -0.3977
 6270SOL    HW220252   3.329   0.696   6.306 -2.1065 -0.3672  0.0351
 6271SOL     OW20253   1.264   7.819   5.764 -0.0941 -0.0843  0.6997
 6271SOL    HW120254   1.190   7.759   5.778  0.6895 -1.1342  0.5021
 6271SOL    HW220255   1.223   7.900   5.733 -1.0641 -1.8376 -3.4164
 6272SOL     OW20256   2.478   1.352   9.656 -0.1708  0.5752  0.4983
 6272SOL    HW120257   2.503   1.279   9.714  0.9345 -1.4161 -2.2915
 6272SOL    HW220258   2.383   1.351   9.657 -0.1776 -0.8091  0.6643
 6273SOL     OW20259   2.128   7.759   1.648 -0.4022 -0.3345 -0.3121
 6273SOL    HW120260   2.095   7.676   1.683 -1.6536  0.0720 -0.4728
 6273SOL    HW220261   2.109   7.823   1.717  0.2582 -0.1179 -0.3226
 6274SOL     OW20262   7.889   4.894  10.712  0.4791  0.2637 -0.0863
 6274SOL    HW120263   7.924   4.816  10.670  0.0601  0.0012  0.0431
 6274SOL    HW220264   7.854   4.862  10.795 -0.6318  0.4032 -0.4870
 6275SOL     OW20265   7.801   5.395   8.013 -0.1621  0.5170  0.0785
 6275SOL    HW120266   7.881   5.405   8.065  0.1830 -2.4410  0.2409
 6275SOL    HW220267   7.810   5.460   7.943  2.0407  0.7561  0.5152
 6276SOL     OW20268   2.468   4.898   8.199  0.1870 -0.0588 -0.4132
 6276SOL    HW120269   2.482   4.969   8.137 -1.2597 -0.8169 -1.6688
 6276SOL    HW220270   2.385   4.918   8.241  0.7176 -0.0275  0.6717
 6277SOL     OW20271   7.384   1.988   7.864 -0.3782  0.0304  0.4896
 6277SOL    HW120272   7.325   2.016   7.935 -1.5810  0.4661 -0.6457
 6277SOL    HW220273   7.469   1.980   7.906 -0.8425  1.3183  1.7801
 6278SOL     OW20274   3.554   7.631  10.607  0.6309  0.2872 -0.1019
 6278SOL    HW120275   3.590   7.715  10.637  2.2093  0.1948 -1.5879
 6278SOL    HW220276   3.572   7.571  10.680 -1.3257  1.3562  1.3684
 6279SOL     OW20277   6.841   1.905   6.146 -0.3502 -0.5064  1.0429
 6279SOL    HW120278   6.771   1.969   6.136 -0.1657 -0.6397 -1.8676
 6279SOL    HW220279   6.908   1.932   6.083  0.7803 -2.2051  1.4534
 6280SOL     OW20280   3.593   1.658  12.373 -0.3107  0.2706 -0.0034
 6280SOL    HW120281   3.633   1.708  12.301  0.0543  0.4817  0.3413
 6280SOL    HW220282   3.667   1.635  12.430 -0.5102 -0.4512 -0.0272
 6281SOL     OW20283   2.699   2.271  12.241 -0.2256  0.0604 -0.0108
 6281SOL    HW120284   2.734   2.358  12.225  0.4013 -0.3066 -0.6599
 6281SOL    HW220285   2.671   2.240  12.155 -0.5199 -0.3509  0.2304
 6282SOL     OW20286   7.288   2.423  12.350 -0.2398  0.0890  0.1596
 6282SOL    HW120287   7.308   2.358  12.418 -1.2340  0.0403  0.4153
 6282SOL    HW220288   7.324   2.385  12.269 -1.4076 -1.1132  0.1746
 6283SOL     OW20289   6.714   7.583   7.874  0.2653 -0.1001 -0.3154
 6283SOL    HW120290   6.627   7.574   7.837 -0.2442  0.7950  0.6009
 6283SOL    HW220291   6.699   7.607   7.966  1.4767 -1.8963  0.3975
 6284SOL     OW20292   3.653   5.624  12.308  0.7166 -0.0460  0.2018
 6284SOL    HW120293   3.730   5.638  12.252  0.8182  0.9258  0.5671
 6284SOL    HW220294   3.668   5.681  12.383  0.2132 -0.7676  0.8580
 6285SOL     OW20295   3.487   1.075   1.811 -0.3647  0.0632 -0.3483
 6285SOL    HW120296   3.428   1.029   1.752 -0.7063  0.9684 -0.7241
 6285SOL    HW220297   3.540   1.131   1.754 -0.5318  0.7646  0.1639
 6286SOL     OW20298   3.941   1.469   0.286 -0.3948 -0.1440 -0.1273
 6286SOL    HW120299   3.988   1.542   0.244 -0.4166 -0.1825 -0.2203
 6286SOL    HW220300   3.990   1.392   0.258 -0.9322 -0.2502 -0.8178
 6287SOL     OW20301   5.798   2.456   8.344  0.0096 -0.2322 -0.0776
 6287SOL    HW120302   5.826   2.371   8.310  0.8042 -1.1773  2.6771
 6287SOL    HW220303   5.877   2.511   8.338 -0.1352 -0.0782 -0.6398
 6288SOL     OW20304   0.687   0.081   6.672 -0.3764  1.0695 -0.4318
 6288SOL    HW120305   0.687   0.106   6.764  0.3880  1.9332 -0.6520
 6288SOL    HW220306   0.631   0.145   6.630  0.1886  1.3738 -0.7334
 6289SOL     OW20307   1.113   4.851  11.448  0.0235 -0.0971  0.1001
 6289SOL    HW120308   1.153   4.835  11.363  1.3878 -0.4304  0.7731
 6289SOL    HW220309   1.082   4.765  11.477 -0.2919 -0.0125  0.0218
 6290SOL     OW20310   1.355   0.410  10.232  0.1285  0.0822  0.1113
 6290SOL    HW120311   1.428   0.357  10.200 -1.4863 -2.1906 -0.0241
 6290SOL    HW220312   1.320   0.452  10.154  0.9802  0.8178  0.1114
 6291SOL     OW20313   4.563   7.254   7.633  0.4129 -0.0819  0.1735
 6291SOL    HW120314   4.609   7.231   7.713  0.9551 -1.1593 -0.4228
 6291SOL    HW220315   4.510   7.176   7.612 -1.0631  0.8168  0.3981
 6292SOL     OW20316   1.661   5.320   3.227 -0.0618 -0.5235  0.0348
 6292SOL    HW120317   1.671   5.286   3.316 -0.4940  0.9087  0.6640
 6292SOL    HW220318   1.651   5.415   3.239 -1.5792 -0.4627 -1.4363
 6293SOL     OW20319   2.743   0.108  11.181  0.6985 -0.0392 -0.0400
 6293SOL    HW120320   2.836   0.102  11.160  0.8578 -0.9550  0.8643
 6293SOL    HW220321   2.739   0.174  11.251  0.8029 -0.7003  0.6036
 6294SOL     OW20322   5.788   2.779  10.759  0.2106 -0.0511 -0.1523
 6294SOL    HW120323   5.827   2.866  10.744  0.3368  0.1328  1.1818
 6294SOL    HW220324   5.861   2.725  10.790 -0.2459 -0.1389  0.7975
 6295SOL     OW20325   4.319   0.880   4.929 -0.0175 -0.1155 -0.3861
 6295SOL    HW120326   4.305   0.824   5.005 -0.2621  1.2503  0.6189
 6295SOL    HW220327   4.231   0.898   4.895  0.0682 -0.4110 -0.7794
 6296SOL     OW20328   2.188   0.538   3.121  0.6453  0.0535  0.3888
 6296SOL    HW120329   2.267   0.552   3.173 -0.0853  1.8130  1.0816
 6296SOL    HW220330   2.116   0.556   3.181 -0.2230  1.6235 -1.0552
 6297SOL     OW20331   7.531   2.639   3.808  0.2235  0.2196  0.7921
 6297SOL    HW120332   7.517   2.652   3.714 -2.1425  2.2693  1.3179
 6297SOL    HW220333   7.621   2.668   3.823  0.0299  1.6870 -0.5906
 6298SOL     OW20334   7.067   0.844  10.703  0.1089  0.1236  0.3660
 6298SOL    HW120335   7.093   0.874  10.790  0.8136 -1.4376  0.7192
 6298SOL    HW220336   7.029   0.758  10.718 -1.9172  0.7740 -0.6157
 6299SOL     OW20337   0.590   0.948   1.482  0.3460 -0.0335 -0.4881
 6299SOL    HW120338   0.578   1.041   1.504 -1.1118 -0.3432  0.1833
 6299SOL    HW220339   0.630   0.910   1.560 -0.8734 -0.3175  0.0249
 6300SOL     OW20340   1.641   4.064   8.441  0.0018 -0.1840  0.2883
 6300SOL    HW120341   1.571   4.125   8.463 -0.1861  0.1111 -1.0759
 6300SOL    HW220342   1.717   4.095   8.492 -0.0287  1.3190 -0.5305
 6301SOL     OW20343   4.375   4.583   7.390  0.2074  0.3292  0.2609
 6301SOL    HW120344   4.463   4.591   7.353  0.0968  1.4880  0.2084
 6301SOL    HW220345   4.388   4.540   7.474  0.4028 -2.9397 -1.2870
 6302SOL     OW20346   2.149   7.023   6.702  0.0074 -0.7491  1.0122
 6302SOL    HW120347   2.124   7.113   6.719  1.0252  0.3624 -2.4244
 6302SOL    HW220348   2.072   6.984   6.659  0.6579 -0.3726 -0.5919
 6303SOL     OW20349   7.645   2.331   5.671 -0.1292 -0.2795 -0.0397
 6303SOL    HW120350   7.612   2.419   5.687  1.8974  0.5502 -0.0793
 6303SOL    HW220351   7.606   2.278   5.741 -0.2531  0.9619  0.8739
 6304SOL     OW20352   1.547   2.503   8.568  0.0291 -0.1170  0.0341
 6304SOL    HW120353   1.601   2.538   8.638 -0.0917  1.3118 -0.5622
 6304SOL    HW220354   1.457   2.512   8.600  0.0233 -0.3841  0.0958
 6305SOL     OW20355   0.275   5.866   3.374 -0.3022  0.6956 -0.4358
 6305SOL    HW120356   0.201   5.874   3.314  0.3711  1.0677 -1.2277
 6305SOL    HW220357   0.251   5.792   3.431 -0.9759  0.3724 -1.1140
 6306SOL     OW20358   7.018   0.920   3.681  0.1894 -0.3258  0.2954
 6306SOL    HW120359   7.107   0.887   3.698  1.4602  1.6376 -2.0072
 6306SOL    HW220360   6.971   0.843   3.648  2.6564 -0.4592 -3.5796
 6307SOL     OW20361   1.562   0.930  11.795 -0.1240 -1.0267  0.1063
 6307SOL    HW120362   1.614   1.008  11.773  1.2318 -1.5094  1.3825
 6307SOL    HW220363   1.583   0.867  11.726 -1.1053 -0.3369 -0.8452
 6308SOL     OW20364   7.123   0.694   0.002  0.0412  0.3220 -0.3560
 6308SOL    HW120365   7.170   0.767  -0.039  0.9621  0.1989  0.4249
 6308SOL    HW220366   7.045   0.681  -0.052 -0.2279  1.9967 -0.4191
 6309SOL     OW20367   4.644   5.092  12.172 -0.7059  0.4026  0.6014
 6309SOL    HW120368   4.641   5.051  12.085 -1.3736  2.7620 -0.5807
 6309SOL    HW220369   4.583   5.041  12.224  0.0112 -1.3220 -0.1579
 6310SOL     OW20370   2.342   7.671   4.361 -0.1540  0.3782  0.0975
 6310SOL    HW120371   2.378   7.612   4.294 -0.4907 -0.4746  0.6449
 6310SOL    HW220372   2.264   7.708   4.320  0.3827  0.9107 -0.4653
 6311SOL     OW20373   3.283   5.844   0.578 -0.3078 -0.3242  0.5069
 6311SOL    HW120374   3.369   5.817   0.609 -0.7518 -0.5331  1.6166
 6311SOL    HW220375   3.260   5.780   0.511  0.2117 -0.5347  0.5264
 6312SOL     OW20376   5.402   5.418  10.033 -0.5925 -0.3237  0.2207
 6312SOL    HW120377   5.335   5.392   9.969 -0.0874 -0.0033 -0.4453
 6312SOL    HW220378   5.411   5.513  10.021  0.8447 -0.5288 -0.5599
 6313SOL     OW20379   4.273   2.361   1.824 -0.4933 -0.3689 -0.2436
 6313SOL    HW120380   4.346   2.326   1.876 -1.6499 -2.7442 -0.1047
 6313SOL    HW220381   4.288   2.327   1.736 -0.8088  0.1329 -0.4948
 6314SOL     OW20382   7.510   0.632  11.845 -0.1605 -0.5977 -0.2200
 6314SOL    HW120383   7.503   0.642  11.940  2.4387  2.5200 -0.1850
 6314SOL    HW220384   7.448   0.695  11.809  0.4837 -0.1095 -0.5055
 6315SOL     OW20385   0.602   0.765  10.083  0.1287 -0.1516  0.1372
 6315SOL    HW120386   0.577   0.751  10.175  1.9698 -0.7250  0.5967
 6315SOL    HW220387   0.571   0.687  10.038  0.1905 -0.3931  0.5018
 6316SOL     OW20388   2.746   5.208   6.304 -0.3387  0.7284  0.0680
 6316SOL    HW120389   2.818   5.173   6.357 -0.3822 -0.0712 -0.3911
 6316SOL    HW220390   2.782   5.286   6.263  0.0533  0.7140  0.3779
 6317SOL     OW20391   7.018   7.511   5.763  0.7483 -0.1376 -0.5428
 6317SOL    HW120392   6.997   7.558   5.682 -0.3112  0.3963  0.0198
 6317SOL    HW220393   7.034   7.579   5.828 -1.4755 -0.4876  0.4573
 6318SOL     OW20394   2.419   6.083   8.599  0.2732  0.2055  0.2970
 6318SOL    HW120395   2.418   6.133   8.517  0.8614  0.9820  0.7524
 6318SOL    HW220396   2.490   6.121   8.650 -0.2990 -0.0424  1.3126
 6319SOL     OW20397   3.769   5.772  10.685  0.3930 -0.5520  1.2939
 6319SOL    HW120398   3.841   5.836  10.679  0.5076 -0.7835 -0.1267
 6319SOL    HW220399   3.811   5.691  10.713  0.4957 -0.4021  1.5806
 6320SOL     OW20400   1.441   1.483   6.361 -0.4343  0.7386 -0.0103
 6320SOL    HW120401   1.402   1.447   6.440  0.1409  0.6303  0.2284
 6320SOL    HW220402   1.463   1.407   6.308  1.0720  0.6862  0.6303
 6321SOL     OW20403   1.263   5.588  10.668 -0.1247  0.3325 -0.2956
 6321SOL    HW120404   1.323   5.648  10.713 -0.6437  0.5519  0.1028
 6321SOL    HW220405   1.280   5.503  10.708 -1.7675  0.8050  1.5543
 6322SOL     OW20406   3.795   1.018   3.112  0.1910 -0.7412 -0.2109
 6322SOL    HW120407   3.736   1.058   3.048  1.5304  0.4021 -0.7793
 6322SOL    HW220408   3.869   0.988   3.061  0.8913 -0.5963  0.6891
 6323SOL     OW20409   2.109   1.223  11.511  0.2314  0.1016  0.6042
 6323SOL    HW120410   2.075   1.194  11.426  0.4827 -0.9838  0.8550
 6323SOL    HW220411   2.201   1.196  11.510  0.2630  0.1757  1.1793
 6324SOL     OW20412   2.840   1.457  11.109  0.0898  0.1146 -0.3817
 6324SOL    HW120413   2.875   1.482  11.195  2.2741  0.6442 -1.3523
 6324SOL    HW220414   2.916   1.423  11.062 -1.3966 -1.7978 -1.5561
 6325SOL     OW20415   0.477   7.374   7.494 -0.3050 -0.1518  0.0331
 6325SOL    HW120416   0.502   7.337   7.409 -0.0709  0.7196 -0.2839
 6325SOL    HW220417   0.446   7.299   7.544 -0.4270 -0.6809 -0.8146
 6326SOL     OW20418   4.294   3.969   5.937 -0.0615  0.1961  0.1806
 6326SOL    HW120419   4.271   3.891   5.988  1.7440 -0.9875 -0.6841
 6326SOL    HW220420   4.284   4.042   5.999 -2.3802 -0.5921  0.8427
 6327SOL     OW20421   2.747   2.477   5.441 -0.1173  0.7985  0.0623
 6327SOL    HW120422   2.678   2.495   5.378 -0.8850 -0.5488  0.4639
 6327SOL    HW220423   2.828   2.495   5.395 -0.7125  1.6039 -0.6930
 6328SOL     OW20424   1.027   5.411   1.566  0.0585 -0.1608 -0.2457
 6328SOL    HW120425   1.119   5.407   1.542 -0.2665 -0.1477 -1.5988
 6328SOL    HW220426   1.016   5.496   1.608  0.5000  0.1805 -0.8175
 6329SOL     OW20427   1.972   7.082   8.330 -0.3023  0.3713 -0.1774
 6329SOL    HW120428   2.059   7.112   8.304 -0.2503  1.1478  0.8204
 6329SOL    HW220429   1.988   7.013   8.394 -0.4163  0.0678 -0.4795
 6330SOL     OW20430   7.169   6.557  10.066 -0.2687 -0.4794  0.5949
 6330SOL    HW120431   7.259   6.527  10.068 -0.4869 -1.1674  0.2363
 6330SOL    HW220432   7.142   6.550   9.974 -0.6820 -0.2730  0.6941
 6331SOL     OW20433   7.785   2.274   8.147  0.4584 -0.1443 -0.2479
 6331SOL    HW120434   7.819   2.187   8.124 -0.9474 -1.3392  1.9016
 6331SOL    HW220435   7.754   2.310   8.064  2.1066 -1.1722 -1.3828
 6332SOL     OW20436   3.481   3.920   0.479  0.4846  0.0623 -0.1996
 6332SOL    HW120437   3.570   3.955   0.489  0.6489 -0.7467  1.5139
 6332SOL    HW220438   3.436   3.984   0.424  1.3317  1.9706  1.2122
 6333SOL     OW20439   5.525   2.796   5.478  0.2779 -0.1780  0.1709
 6333SOL    HW120440   5.567   2.718   5.441  0.0728 -0.0949 -0.2370
 6333SOL    HW220441   5.476   2.763   5.553 -1.0487 -0.6929 -0.8924
 6334SOL     OW20442   4.828   1.726   4.274 -0.2612  0.2485 -0.5454
 6334SOL    HW120443   4.773   1.783   4.220  0.5845  0.4766 -1.1877
 6334SOL    HW220444   4.899   1.783   4.305 -0.8662  0.1958  1.0578
 6335SOL     OW20445   5.224   6.035  10.321  0.5337 -0.4674 -0.1328
 6335SOL    HW120446   5.201   5.950  10.284  0.6037 -1.5473  2.0986
 6335SOL    HW220447   5.195   6.030  10.412  1.4116  1.5579  0.3236
 6336SOL     OW20448   1.282   7.828   8.674  0.1182  0.9829 -0.4575
 6336SOL    HW120449   1.297   7.791   8.760  0.0623  0.3756 -0.7003
 6336SOL    HW220450   1.366   7.867   8.649 -0.5464  3.5537  0.9669
 6337SOL     OW20451   6.804   3.032   2.231 -0.1617  0.1303 -0.2670
 6337SOL    HW120452   6.841   3.001   2.313 -0.0166 -3.0172 -1.3862
 6337SOL    HW220453   6.717   3.065   2.255  0.7708  1.5666  1.4136
 6338SOL     OW20454   3.499   1.061  10.481 -0.0978 -0.1306  0.0034
 6338SOL    HW120455   3.451   1.084  10.560 -1.2185 -1.1440 -0.3574
 6338SOL    HW220456   3.580   1.020  10.514 -0.0221  0.4833  0.6101
 6339SOL     OW20457   2.181   2.879  11.705 -0.6585  0.0759  0.5011
 6339SOL    HW120458   2.259   2.826  11.722 -0.4198  0.0215 -0.7131
 6339SOL    HW220459   2.200   2.963  11.746  0.1880  0.1738 -0.0701
 6340SOL     OW20460   7.242   5.335   0.519 -0.1991 -0.8116  0.4535
 6340SOL    HW120461   7.215   5.420   0.483  1.0041 -0.4415  0.3821
 6340SOL    HW220462   7.180   5.319   0.590 -1.0758 -0.3745 -0.1945
 6341SOL     OW20463   5.602   7.632   5.971  0.9505  0.2833 -0.1755
 6341SOL    HW120464   5.548   7.635   5.892  1.6474 -0.0123 -0.6716
 6341SOL    HW220465   5.539   7.621   6.042  0.4055 -0.8563 -0.8026
 6342SOL     OW20466   4.153   7.660  11.825  0.6413 -0.4108 -0.0413
 6342SOL    HW120467   4.236   7.622  11.796  0.5091 -1.0246  0.3476
 6342SOL    HW220468   4.178   7.735  11.879  0.9949 -1.2954  1.0584
 6343SOL     OW20469   0.910   3.893   1.701 -0.4654 -0.0057  0.0973
 6343SOL    HW120470   0.957   3.974   1.718 -0.7771 -0.2370  2.5358
 6343SOL    HW220471   0.856   3.880   1.780 -1.2700 -1.9849 -0.7113
 6344SOL     OW20472   1.716   3.268   1.734  0.3483  0.1075 -0.1726
 6344SOL    HW120473   1.760   3.232   1.657  0.3052  0.0693 -0.1797
 6344SOL    HW220474   1.758   3.226   1.808  0.4024  0.1579 -0.1744
 6345SOL     OW20475   7.478   6.814   0.612  0.3435  0.0115 -0.2328
 6345SOL    HW120476   7.567   6.838   0.640 -0.3805  1.3360  1.1133
 6345SOL    HW220477   7.439   6.773   0.689 -1.3645  2.7809  0.5592
 6346SOL     OW20478   0.368   4.657  10.020 -0.1935  0.2785 -0.3188
 6346SOL    HW120479   0.434   4.679   9.954 -0.8377  2.3988 -0.3410
 6346SOL    HW220480   0.372   4.730  10.082 -2.5669  0.5398 -0.3887
 6347SOL     OW20481   3.192   7.033   4.370 -0.0424 -0.0892  0.6854
 6347SOL    HW120482   3.170   6.994   4.455  0.1621  2.6650  2.1199
 6347SOL    HW220483   3.111   7.077   4.343  0.5185  0.8749  0.5557
 6348SOL     OW20484   6.709   2.278   3.262 -0.1381 -0.1090 -0.3834
 6348SOL    HW120485   6.702   2.372   3.277  0.7862 -0.3022  1.5008
 6348SOL    HW220486   6.632   2.241   3.306 -0.1521 -0.2982 -0.5634
 6349SOL     OW20487   0.697   7.838   9.917  0.6830  0.1592  0.0323
 6349SOL    HW120488   0.769   7.882   9.874  3.3301 -2.8532  0.9818
 6349SOL    HW220489   0.642   7.805   9.846  1.0155  1.2323 -0.7442
 6350SOL     OW20490   5.231   2.079   9.552  0.0099  0.2068 -0.3752
 6350SOL    HW120491   5.156   2.037   9.509  0.5497  0.6088 -1.7916
 6350SOL    HW220492   5.232   2.168   9.516  2.7595 -0.5835 -2.6449
 6351SOL     OW20493   4.476   0.250   8.669 -0.1067  0.1696 -0.0101
 6351SOL    HW120494   4.442   0.169   8.708 -1.6984  0.8358  0.0922
 6351SOL    HW220495   4.542   0.222   8.607  0.6080 -1.0952  1.2705
 6352SOL     OW20496   3.388   0.330   7.448 -0.3785 -0.3634  0.5389
 6352SOL    HW120497   3.369   0.423   7.456 -0.1417 -0.1557 -0.9869
 6352SOL    HW220498   3.302   0.288   7.450 -0.7065  0.1378 -1.2824
 6353SOL     OW20499   2.542   7.555  11.476  0.3083  0.3448  0.7164
 6353SOL    HW120500   2.567   7.544  11.384  0.0746 -0.1139  0.7053
 6353SOL    HW220501   2.587   7.484  11.522 -0.2451  0.0581  0.8280
 6354SOL     OW20502   1.708   3.735   1.388 -0.0114  0.2501 -0.0461
 6354SOL    HW120503   1.731   3.735   1.296 -0.6644 -0.0679 -0.2154
 6354SOL    HW220504   1.744   3.653   1.422 -1.7441 -0.7632 -0.5445
 6355SOL     OW20505   3.131   1.189   3.008  0.3952  0.0940 -0.3365
 6355SOL    HW120506   3.071   1.234   2.949  0.4833  1.7725  0.7754
 6355SOL    HW220507   3.217   1.202   2.969  0.4513  1.1847  0.1162
 6356SOL     OW20508   3.351   0.492   9.768 -0.1707 -0.0570 -0.1402
 6356SOL    HW120509   3.351   0.401   9.739  2.5714 -0.0822 -0.3555
 6356SOL    HW220510   3.305   0.539   9.699  0.3694 -1.0218 -1.2037
 6357SOL     OW20511   2.900   1.335   5.889 -0.4078  0.2322  0.5669
 6357SOL    HW120512   2.864   1.411   5.935 -0.7757  1.5905 -1.8197
 6357SOL    HW220513   2.994   1.340   5.906 -0.5965  0.3255  1.6591
 6358SOL     OW20514   1.053   7.602   6.806  0.0458 -0.0003  0.0984
 6358SOL    HW120515   1.047   7.586   6.900  1.8753  0.6701  0.3572
 6358SOL    HW220516   1.061   7.697   6.798 -2.4752  0.2268 -0.9299
 6359SOL     OW20517   3.702   1.656  10.206  0.3694  0.0802  0.0377
 6359SOL    HW120518   3.667   1.694  10.287  0.1625 -1.5225  0.7322
 6359SOL    HW220519   3.796   1.652  10.220  0.1240 -3.1340  1.6186
 6360SOL     OW20520   7.146   7.817   8.090 -0.6881 -0.2830  0.3664
 6360SOL    HW120521   7.195   7.867   8.024 -0.8670 -0.8063 -0.1670
 6360SOL    HW220522   7.108   7.884   8.147  0.5539  0.1412  0.7264
 6361SOL     OW20523   2.972   0.530   0.048  0.7804  0.3240  0.3218
 6361SOL    HW120524   3.008   0.591   0.112  0.8594 -0.1677  0.7536
 6361SOL    HW220525   2.937   0.458   0.100  1.7626 -0.5777 -0.2213
 6362SOL     OW20526   1.802   1.098   3.060  0.0852  0.1575 -0.2670
 6362SOL    HW120527   1.763   1.166   3.115 -0.7434 -0.9123  0.5020
 6362SOL    HW220528   1.774   1.119   2.971  2.1063  2.3839 -0.4705
 6363SOL     OW20529   4.735   1.132   4.907 -0.4179 -0.6542  0.3767
 6363SOL    HW120530   4.647   1.146   4.940 -0.0522  3.2272  0.1901
 6363SOL    HW220531   4.728   1.144   4.812  0.1158 -1.7061  0.1873
 6364SOL     OW20532   0.847   0.386   6.492  0.3414 -0.4383 -0.5211
 6364SOL    HW120533   0.765   0.404   6.537  0.5095 -1.4095  0.1987
 6364SOL    HW220534   0.915   0.406   6.556  0.5760 -2.0382 -0.2314
 6365SOL     OW20535   6.328   3.164   4.139  0.3235 -0.7455 -0.1173
 6365SOL    HW120536   6.323   3.249   4.183 -0.5183 -0.0125 -1.5374
 6365SOL    HW220537   6.243   3.123   4.158  0.7773 -1.3405  0.6690
 6366SOL     OW20538   7.068   3.292   3.919 -0.4653 -0.1495 -0.1795
 6366SOL    HW120539   7.024   3.210   3.898 -0.1746 -0.4705  0.4556
 6366SOL    HW220540   7.153   3.266   3.954  0.1935  0.4642 -1.2550
 6367SOL     OW20541   3.814   4.899  11.650  0.2662  0.2638 -0.7134
 6367SOL    HW120542   3.881   4.963  11.625 -0.0813  0.3243 -1.5390
 6367SOL    HW220543   3.797   4.916  11.743  2.0043 -0.3236 -0.2422
 6368SOL     OW20544   7.677   0.990   4.241 -0.2677  0.4079 -0.1244
 6368SOL    HW120545   7.695   0.988   4.147 -0.8894 -1.3768 -0.2393
 6368SOL    HW220546   7.585   1.013   4.247 -0.5470 -0.6859 -0.0282
 6369SOL     OW20547   1.111   1.481   4.166 -0.0380 -0.1568 -0.0820
 6369SOL    HW120548   1.069   1.565   4.146  0.4362 -0.2098 -1.4328
 6369SOL    HW220549   1.201   1.503   4.188  0.2187 -0.3358 -0.9195
 6370SOL     OW20550   7.663   3.366   1.037 -0.8265 -0.2979 -0.3244
 6370SOL    HW120551   7.712   3.381   0.957 -2.3445  0.0291 -1.2447
 6370SOL    HW220552   7.722   3.394   1.108  0.1173  0.5044 -1.3975
 6371SOL     OW20553   3.186   5.890   7.690  0.7987 -0.2469  0.5729
 6371SOL    HW120554   3.194   5.984   7.704  2.7672 -0.5536  1.8136
 6371SOL    HW220555   3.200   5.851   7.777  0.3250 -1.7045  0.0275
 6372SOL     OW20556   4.222   6.419  11.740 -0.3908 -0.2043 -0.5103
 6372SOL    HW120557   4.130   6.400  11.725 -0.3658 -0.2116 -0.6604
 6372SOL    HW220558   4.268   6.352  11.689 -0.2911 -1.7719  1.5130
 6373SOL     OW20559   2.260   1.867   6.180 -0.1233  0.3176 -0.3940
 6373SOL    HW120560   2.293   1.781   6.206  0.1908  0.3088 -0.8162
 6373SOL    HW220561   2.171   1.850   6.149 -0.2645  0.2320  0.0430
 6374SOL     OW20562   3.015   0.695   8.284 -0.4603 -0.0332 -0.1365
 6374SOL    HW120563   3.019   0.768   8.346  2.0038 -0.7884  0.7520
 6374SOL    HW220564   2.943   0.641   8.315 -0.9623  0.9547  0.4693
 6375SOL     OW20565   6.284   2.647  11.380 -0.2243 -0.3626 -0.1048
 6375SOL    HW120566   6.191   2.647  11.403 -0.4669 -1.7825 -0.9623
 6375SOL    HW220567   6.324   2.584  11.441  0.1689  0.1748  0.2023
 6376SOL     OW20568   6.018   6.850  11.277 -0.0503 -0.0050 -0.4149
 6376SOL    HW120569   6.036   6.814  11.190 -2.4276  0.5398 -1.2130
 6376SOL    HW220570   5.948   6.795  11.312  1.6180 -0.9400  1.7149
 6377SOL     OW20571   6.864   5.989   7.807  0.1023  0.2838 -0.1266
 6377SOL    HW120572   6.919   5.929   7.757 -1.4286 -0.9832 -0.3643
 6377SOL    HW220573   6.857   5.948   7.893 -0.5221  0.3907 -0.1246
 6378SOL     OW20574   6.479   1.464   2.139 -0.2824  0.1452  0.4226
 6378SOL    HW120575   6.464   1.536   2.078 -1.4412  0.6465  1.2705
 6378SOL    HW220576   6.392   1.425   2.151  0.3112 -1.4087 -0.0059
 6379SOL     OW20577   7.858   6.791   7.671  0.2155 -0.5218 -0.1538
 6379SOL    HW120578   7.793   6.800   7.741 -1.7926 -0.2014 -1.9438
 6379SOL    HW220579   7.910   6.715   7.696  0.0156 -0.0380  1.9674
 6380SOL     OW20580   7.383   2.352  10.207  0.2613 -0.1836 -0.1536
 6380SOL    HW120581   7.479   2.350  10.209  0.3149 -3.2199  2.6856
 6380SOL    HW220582   7.359   2.269  10.168 -1.1067 -1.0235  2.3046
 6381SOL     OW20583   0.426   4.288   9.093  0.0180 -0.0707  0.4214
 6381SOL    HW120584   0.430   4.364   9.034 -2.2448  0.1482  0.4573
 6381SOL    HW220585   0.405   4.214   9.036 -0.4826 -0.1697  0.7320
 6382SOL     OW20586   6.782   2.426   4.127  0.3111 -0.2914  0.3199
 6382SOL    HW120587   6.847   2.477   4.079 -0.4528  0.3163 -0.0956
 6382SOL    HW220588   6.812   2.427   4.218  0.5103  0.5691  0.2499
 6383SOL     OW20589   0.565   5.373   8.161  0.0120 -0.5107 -0.0314
 6383SOL    HW120590   0.490   5.365   8.221  1.8243 -1.6733  2.2240
 6383SOL    HW220591   0.601   5.285   8.156  0.2831 -0.3436 -2.5010
 6384SOL     OW20592   5.893   0.181   7.014 -0.1521  0.5610  0.3770
 6384SOL    HW120593   5.820   0.225   7.057 -0.5764  0.4878 -0.2428
 6384SOL    HW220594   5.940   0.251   6.969 -0.1244  0.5454  0.3824
 6385SOL     OW20595   0.458   5.213  10.537  0.2318  0.3462 -1.0511
 6385SOL    HW120596   0.386   5.156  10.566 -1.1180  1.7430 -1.4702
 6385SOL    HW220597   0.514   5.222  10.614  0.0337 -0.8812 -0.7508
 6386SOL     OW20598   1.531   4.194   0.658 -0.4640 -0.1873 -0.0729
 6386SOL    HW120599   1.523   4.285   0.627  0.9601  0.1694  0.5382
 6386SOL    HW220600   1.464   4.146   0.609 -0.1865  0.8911 -1.5743
 6387SOL     OW20601   5.527   2.830   3.763 -0.1060  0.0438 -0.1288
 6387SOL    HW120602   5.555   2.844   3.853  1.2161 -1.2570 -0.2923
 6387SOL    HW220603   5.513   2.918   3.728 -1.8951  0.5496  1.6726
 6388SOL     OW20604   1.551   2.994   9.619  0.4417  0.1737  0.1669
 6388SOL    HW120605   1.546   2.964   9.710 -0.3323  1.1631  0.4711
 6388SOL    HW220606   1.468   2.966   9.580 -0.8076  2.7992  0.7676
 6389SOL     OW20607   6.107   4.882   7.603 -0.5448 -0.1168 -0.2566
 6389SOL    HW120608   6.057   4.803   7.625 -0.6699  0.1372  0.4063
 6389SOL    HW220609   6.172   4.889   7.673 -0.3033  0.1739 -0.5062
 6390SOL     OW20610   0.752   7.099   9.747  0.6111  0.4321 -0.3410
 6390SOL    HW120611   0.726   7.064   9.832 -0.1356 -0.3638 -0.8738
 6390SOL    HW220612   0.675   7.085   9.691  1.1133  0.8740 -1.1674
 6391SOL     OW20613   1.009   2.291   3.458  0.3659 -0.4749  0.2417
 6391SOL    HW120614   0.926   2.251   3.433  0.0758  0.6424 -0.7134
 6391SOL    HW220615   1.046   2.232   3.524 -1.2667 -0.8878  0.8339
 6392SOL     OW20616   2.083   7.848   8.566 -0.0957  0.1825 -0.5409
 6392SOL    HW120617   2.030   7.774   8.598  0.6623 -1.2649 -2.4317
 6392SOL    HW220618   2.081   7.840   8.471  0.7661  2.0997 -0.7654
 6393SOL     OW20619   0.839   0.098   2.304  0.1347  0.1765 -0.2270
 6393SOL    HW120620   0.775   0.131   2.366 -1.4123 -2.3743 -0.3025
 6393SOL    HW220621   0.860   0.172   2.248 -1.1402  1.6098  1.1151
 6394SOL     OW20622   2.495   3.495   8.577 -0.1638 -0.7532  0.5135
 6394SOL    HW120623   2.521   3.497   8.485  1.9059  0.9186  1.0627
 6394SOL    HW220624   2.421   3.555   8.583  2.0411  2.1648  0.4842
 6395SOL     OW20625   4.850   4.418   7.879 -0.3245 -0.5147 -0.0028
 6395SOL    HW120626   4.803   4.366   7.813 -1.7670 -0.8140  1.2068
 6395SOL    HW220627   4.789   4.488   7.902  1.3679  1.4300 -1.1725
 6396SOL     OW20628   5.080   3.547   4.343  0.3322  0.2040 -0.2546
 6396SOL    HW120629   5.053   3.546   4.251 -1.3922  0.3100  0.2241
 6396SOL    HW220630   5.116   3.460   4.358 -0.7528 -0.3269 -0.6548
 6397SOL     OW20631   0.936   3.712   1.324  0.5748 -0.5361 -0.4113
 6397SOL    HW120632   0.848   3.745   1.341  1.5376  2.3440 -0.4840
 6397SOL    HW220633   0.922   3.634   1.270 -1.9138 -0.4260 -0.0557
 6398SOL     OW20634   5.553   4.108   1.763  0.1695 -0.1738 -0.4696
 6398SOL    HW120635   5.523   4.055   1.837 -1.1738  0.0829 -0.8031
 6398SOL    HW220636   5.546   4.198   1.793 -0.2235 -0.0754 -0.8480
 6399SOL     OW20637   3.024   7.687   1.256  0.0924  0.2088 -0.3762
 6399SOL    HW120638   3.098   7.741   1.283  0.8120 -0.9380 -0.0018
 6399SOL    HW220639   3.036   7.676   1.161  0.3653  0.0876 -0.3296
 6400SOL     OW20640   2.271   7.583  10.207 -0.4575 -0.6584 -0.1102
 6400SOL    HW120641   2.278   7.639  10.284 -0.8934 -0.0259 -0.5264
 6400SOL    HW220642   2.292   7.495  10.240 -0.8130 -0.4262  0.7668
 6401SOL     OW20643   7.681   3.133   7.916 -0.1109  0.3668 -0.6200
 6401SOL    HW120644   7.769   3.127   7.954 -0.0956 -0.1116 -0.7267
 6401SOL    HW220645   7.652   3.222   7.936 -0.3865 -0.0873  1.1336
 6402SOL     OW20646   3.875   6.325   4.521 -0.1117  0.2900  0.1347
 6402SOL    HW120647   3.967   6.300   4.508 -0.4145 -0.6956 -0.1957
 6402SOL    HW220648   3.874   6.368   4.606  0.5824 -0.0882  0.3440
 6403SOL     OW20649   3.700   4.880   3.279  0.2292  0.0549  0.4437
 6403SOL    HW120650   3.746   4.796   3.279  1.3616  0.6555 -0.2784
 6403SOL    HW220651   3.655   4.882   3.194 -0.6565 -0.2593  0.8906
 6404SOL     OW20652   3.043   3.407   3.807  0.2929  0.1389  0.1849
 6404SOL    HW120653   3.053   3.317   3.778 -0.0873 -0.3073  1.3846
 6404SOL    HW220654   2.952   3.414   3.835  0.4943  0.7124  0.7189
 6405SOL     OW20655   4.654   7.021   0.707 -0.1715 -0.0922 -0.3023
 6405SOL    HW120656   4.621   7.091   0.763  0.3742  0.3101 -0.4648
 6405SOL    HW220657   4.624   7.044   0.619 -0.4276 -0.3429 -0.2825
 6406SOL     OW20658   5.434   3.621  11.576 -0.1858 -0.6363  0.0758
 6406SOL    HW120659   5.388   3.596  11.657 -1.4515  0.9342 -0.0990
 6406SOL    HW220660   5.370   3.607  11.507  0.1464  0.0492 -0.3825
 6407SOL     OW20661   7.824   0.433  12.335  0.1929 -0.6806  0.1526
 6407SOL    HW120662   7.878   0.512  12.328  0.5594 -1.0130 -0.8603
 6407SOL    HW220663   7.735   0.463  12.314  0.2458 -0.4378  0.2749
 6408SOL     OW20664   2.356   4.017  11.844 -0.2913 -0.7373 -0.6629
 6408SOL    HW120665   2.344   4.110  11.864  0.6263 -0.5526 -0.9532
 6408SOL    HW220666   2.442   3.995  11.879 -1.2893 -1.9939  1.1945
 6409SOL     OW20667   2.147   7.190   3.321 -0.0392  0.1659 -0.2501
 6409SOL    HW120668   2.239   7.180   3.344 -0.3469  0.4050  1.1759
 6409SOL    HW220669   2.121   7.274   3.359 -0.2984  1.1947 -2.5546
 6410SOL     OW20670   7.170   6.245   1.314 -0.5553  0.0666  0.6320
 6410SOL    HW120671   7.225   6.246   1.392  1.7411 -2.0223 -0.8524
 6410SOL    HW220672   7.121   6.163   1.321 -1.0031  0.3034  0.2931
 6411SOL     OW20673   0.484   6.126   7.084  0.2388  0.1983  0.2581
 6411SOL    HW120674   0.399   6.169   7.083 -0.7364 -1.2930  3.6107
 6411SOL    HW220675   0.542   6.190   7.125  0.8234  1.1984 -1.9882
 6412SOL     OW20676   6.875   2.029  12.422 -0.3228 -0.4962  0.2288
 6412SOL    HW120677   6.964   2.056  12.401 -0.1931 -1.0366  0.0673
 6412SOL    HW220678   6.825   2.047  12.342 -0.1018 -1.3255 -0.1079
 6413SOL     OW20679   0.792   6.003  11.228  0.0951 -0.6674  0.4210
 6413SOL    HW120680   0.839   6.000  11.311  1.9349  2.8150 -0.2879
 6413SOL    HW220681   0.861   6.001  11.162 -0.9495  1.0201 -0.8009
 6414SOL     OW20682   0.638   7.453   5.171  0.3626  0.0150 -0.5519
 6414SOL    HW120683   0.577   7.409   5.111 -0.6418 -0.1318  0.5350
 6414SOL    HW220684   0.724   7.417   5.149 -0.1656 -0.9819 -1.0403
 6415SOL     OW20685   2.741   5.497  12.357 -0.3874  0.1448 -0.2649
 6415SOL    HW120686   2.778   5.409  12.349  1.1275  0.9234 -2.6372
 6415SOL    HW220687   2.733   5.528  12.267  0.5448  3.0136  0.5457
 6416SOL     OW20688   7.838   3.854  12.384 -0.1027  0.2487  0.1453
 6416SOL    HW120689   7.901   3.807  12.330  0.6277  0.2663  0.9520
 6416SOL    HW220690   7.875   3.942  12.392 -1.0562  0.7450 -0.6958
 6417SOL     OW20691   6.195   7.839   2.161  0.2081 -0.1675 -0.5320
 6417SOL    HW120692   6.289   7.822   2.164  0.2306 -0.0848 -0.7761
 6417SOL    HW220693   6.188   7.931   2.137  0.0905  0.2638  1.0623
 6418SOL     OW20694   4.511   1.636  10.347  0.0064  0.4915  0.5249
 6418SOL    HW120695   4.425   1.638  10.305  0.9258  1.2193 -1.4204
 6418SOL    HW220696   4.492   1.621  10.440 -2.1053 -0.9793 -0.0932
 6419SOL     OW20697   2.073   2.854   4.548 -0.2832  0.5436  0.1427
 6419SOL    HW120698   2.054   2.840   4.456  0.7742 -0.1239  0.0150
 6419SOL    HW220699   2.086   2.949   4.556  0.6089  0.4952 -0.6018
 6420SOL     OW20700   2.329   3.036   7.472 -0.3689  0.4980  0.0801
 6420SOL    HW120701   2.413   3.073   7.501 -0.1355 -0.6293  0.9125
 6420SOL    HW220702   2.263   3.083   7.522 -0.4715  2.8577 -2.0311
 6421SOL     OW20703   4.041   4.760   2.527 -0.5603  0.3079 -0.4004
 6421SOL    HW120704   3.972   4.725   2.584 -0.2542 -0.8960 -0.7457
 6421SOL    HW220705   4.058   4.691   2.464  2.0671 -0.1022  0.6155
 6422SOL     OW20706   5.684   0.627   5.296  0.2187  0.0084 -0.3374
 6422SOL    HW120707   5.774   0.614   5.266 -0.4179  0.8029 -2.8849
 6422SOL    HW220708   5.656   0.708   5.253 -1.6981 -0.1956  0.4210
 6423SOL     OW20709   6.635   2.870  11.521 -0.2047  0.1039  0.1016
 6423SOL    HW120710   6.689   2.805  11.566 -0.4029  0.0487  0.2647
 6423SOL    HW220711   6.627   2.837  11.432 -0.5710 -0.2690  0.2657
 6424SOL     OW20712   5.046   4.247   0.079  0.3096  0.5710 -0.3561
 6424SOL    HW120713   5.098   4.171   0.054  0.4950  0.3451  0.6958
 6424SOL    HW220714   5.089   4.320   0.034  0.2499  0.0995 -1.2100
 6425SOL     OW20715   7.005   7.100   4.435  0.3150 -0.5539  0.2338
 6425SOL    HW120716   7.035   7.156   4.363 -1.1772 -0.4539 -0.3320
 6425SOL    HW220717   6.995   7.159   4.509 -0.2136 -0.2649 -0.0672
 6426SOL     OW20718   6.170   0.521   2.420 -0.1943  0.0427  0.0452
 6426SOL    HW120719   6.144   0.544   2.331  0.1394  0.5257  0.0640
 6426SOL    HW220720   6.146   0.598   2.472  3.1591  1.4975 -0.2850
 6427SOL     OW20721   3.690   4.388   4.385  0.3722  0.2745  0.6765
 6427SOL    HW120722   3.676   4.393   4.480  2.0771  0.2213  0.9651
 6427SOL    HW220723   3.732   4.303   4.372  1.7485  1.0125  0.1203
 6428SOL     OW20724   7.320   3.903   4.782 -0.3048 -0.2447 -0.0418
 6428SOL    HW120725   7.351   3.837   4.719  1.2945  2.1897 -2.0285
 6428SOL    HW220726   7.239   3.936   4.743 -0.2311  0.0667  0.0690
 6429SOL     OW20727   3.886   5.972   6.069  0.2342 -0.4103  0.6741
 6429SOL    HW120728   3.913   5.917   5.996 -4.5952 -2.7592  0.2949
 6429SOL    HW220729   3.877   6.060   6.031  0.7790 -0.9119 -0.6694
 6430SOL     OW20730   2.064   0.360   8.134  0.2050  0.1954  0.0324
 6430SOL    HW120731   2.098   0.282   8.091  0.0779  0.3303 -0.3140
 6430SOL    HW220732   1.971   0.361   8.113  0.5420  1.4956 -1.6287
 6431SOL     OW20733   6.700   6.262   0.486  0.1596 -0.1796 -0.4292
 6431SOL    HW120734   6.723   6.346   0.447 -0.4089 -0.8347 -2.2937
 6431SOL    HW220735   6.735   6.197   0.425 -0.1235 -1.2708  0.5486
 6432SOL     OW20736   0.353   4.776   2.643 -0.1594  0.2563  0.2789
 6432SOL    HW120737   0.379   4.726   2.565  0.1576  0.7301  0.0829
 6432SOL    HW220738   0.375   4.719   2.716 -3.3414 -1.6357 -0.0137
 6433SOL     OW20739   3.354   7.385   6.869  0.1001 -0.2627 -0.4781
 6433SOL    HW120740   3.392   7.298   6.884  0.5739 -0.2748 -1.6251
 6433SOL    HW220741   3.384   7.409   6.781 -1.1488  0.4768 -0.7324
 6434SOL     OW20742   7.163   7.878   9.395  0.4697  0.2223 -0.3079
 6434SOL    HW120743   7.162   7.945   9.464 -0.2537 -0.6066  0.5055
 6434SOL    HW220744   7.121   7.920   9.320  0.1304  0.7155  0.1564
 6435SOL     OW20745   2.594   5.437   5.590  0.0092 -0.3913 -0.1980
 6435SOL    HW120746   2.626   5.352   5.620  1.6694 -0.2118 -1.3540
 6435SOL    HW220747   2.588   5.428   5.495  0.8776  0.9750 -0.4102
 6436SOL     OW20748   4.811   0.830   4.429 -0.3721 -0.0621 -0.0123
 6436SOL    HW120749   4.905   0.810   4.422 -0.1901  0.9766 -0.7917
 6436SOL    HW220750   4.770   0.775   4.361 -0.2421 -0.0123 -0.1322
 6437SOL     OW20751   1.984   1.583   5.423  0.2834  0.0960 -0.5117
 6437SOL    HW120752   1.892   1.559   5.421  0.5563 -1.0204 -0.3927
 6437SOL    HW220753   1.985   1.677   5.401 -0.8880  0.2024 -0.1868
 6438SOL     OW20754   5.976   2.612  10.870 -0.2922 -0.0058  0.0604
 6438SOL    HW120755   6.066   2.621  10.839 -1.0998 -0.4223 -2.6259
 6438SOL    HW220756   5.972   2.523  10.904 -0.0584 -0.5286 -1.2265
 6439SOL     OW20757   3.599   2.559   1.919  0.7551  0.1953 -0.2280
 6439SOL    HW120758   3.588   2.465   1.935 -0.9225  0.2897 -0.6656
 6439SOL    HW220759   3.510   2.593   1.910  1.2623  2.0442  1.0583
 6440SOL     OW20760   2.326   7.859  10.724  0.1620 -0.8826  0.6757
 6440SOL    HW120761   2.362   7.771  10.735  0.1829 -0.7148  2.0601
 6440SOL    HW220762   2.231   7.846  10.729  0.1215 -0.9419 -0.0973
 6441SOL     OW20763   4.588   2.674   2.521 -0.0915 -0.1803 -0.4809
 6441SOL    HW120764   4.545   2.697   2.439 -0.6126 -2.2548 -0.8425
 6441SOL    HW220765   4.680   2.659   2.497  0.1386  0.9473 -0.3373
 6442SOL     OW20766   0.320   2.431   6.617 -0.3139 -0.0359 -0.0791
 6442SOL    HW120767   0.378   2.455   6.545 -0.2633  0.4737  0.1319
 6442SOL    HW220768   0.344   2.490   6.688  0.9826 -1.7859  1.0309
 6443SOL     OW20769   1.123   2.225  11.290  0.2002 -0.0928  0.1851
 6443SOL    HW120770   1.212   2.234  11.255  0.5735  0.7639  1.2995
 6443SOL    HW220771   1.092   2.141  11.254  2.2339 -1.4567  1.4249
 6444SOL     OW20772   6.530   5.241   0.855  0.0957  0.2434  0.0177
 6444SOL    HW120773   6.528   5.309   0.922  1.0600 -0.2411  0.5701
 6444SOL    HW220774   6.469   5.271   0.788 -1.1470  0.5937  1.2575
 6445SOL     OW20775   5.267   4.422   5.818  0.1720  0.4176  0.1032
 6445SOL    HW120776   5.211   4.464   5.752  2.1193  1.9787 -0.6495
 6445SOL    HW220777   5.300   4.343   5.775 -1.1045 -0.3046  0.4139
 6446SOL     OW20778   5.783   5.178   5.117  0.0420  0.1677 -0.1891
 6446SOL    HW120779   5.775   5.083   5.130 -0.7872  0.3006  0.3817
 6446SOL    HW220780   5.874   5.191   5.091 -0.1978 -0.9390 -1.7077
 6447SOL     OW20781   5.854   6.163   0.175 -0.1004  0.0439  0.4291
 6447SOL    HW120782   5.894   6.233   0.124  0.9602 -0.9148 -0.0923
 6447SOL    HW220783   5.928   6.113   0.209 -0.8407 -0.7166  0.9633
 6448SOL     OW20784   2.989   7.371   1.935  0.3474 -0.4156 -0.0285
 6448SOL    HW120785   3.048   7.404   2.003 -0.0836  0.4417 -0.0599
 6448SOL    HW220786   2.964   7.449   1.885 -1.7348 -0.5414  0.7072
 6449SOL     OW20787   7.130   1.434   7.002 -0.2117  0.0165 -0.4159
 6449SOL    HW120788   7.048   1.390   7.023  0.6462 -0.9533  1.0894
 6449SOL    HW220789   7.104   1.521   6.972 -1.7070  0.8784  2.9542
 6450SOL     OW20790   3.395   7.713  11.553 -0.1946  0.2015  0.1830
 6450SOL    HW120791   3.328   7.755  11.499 -0.7215 -0.9120 -0.0584
 6450SOL    HW220792   3.390   7.758  11.637 -1.2299  0.1749  0.1524
 6451SOL     OW20793   4.161   1.964   5.069 -0.3622 -0.2291 -0.1084
 6451SOL    HW120794   4.184   1.892   5.011 -0.8433  0.7250 -1.5424
 6451SOL    HW220795   4.241   2.017   5.072 -0.3644 -0.2348  0.0290
 6452SOL     OW20796   2.268   2.642  10.455 -0.2676 -0.0822  0.1938
 6452SOL    HW120797   2.247   2.631  10.548  0.6413  1.0257  0.5445
 6452SOL    HW220798   2.363   2.650  10.452 -0.2077 -0.9469 -0.9386
 6453SOL     OW20799   3.638   4.974   6.411  0.0471 -0.0681  0.2132
 6453SOL    HW120800   3.649   5.040   6.480  2.0244 -1.7411  1.6419
 6453SOL    HW220801   3.726   4.936   6.401 -0.3958 -0.5892 -2.5747
 6454SOL     OW20802   1.489   7.392   1.567 -0.1575 -0.4387 -0.0960
 6454SOL    HW120803   1.579   7.370   1.590 -0.4966 -1.4680  0.3129
 6454SOL    HW220804   1.436   7.330   1.618 -1.0459 -0.7643 -1.3726
 6455SOL     OW20805   6.528   3.275   8.791  0.4150 -0.0816 -0.3421
 6455SOL    HW120806   6.543   3.291   8.885 -0.1322  1.4226 -0.4881
 6455SOL    HW220807   6.453   3.216   8.789  1.3781 -1.3871  0.1796
 6456SOL     OW20808   4.468   2.501  11.499  0.1189  0.3176 -0.1670
 6456SOL    HW120809   4.471   2.570  11.433 -1.4077  1.3991  0.8275
 6456SOL    HW220810   4.531   2.436  11.469  2.1425  2.4413 -0.8087
 6457SOL     OW20811   7.738   4.438   2.844 -0.2285  0.0306  0.1696
 6457SOL    HW120812   7.665   4.487   2.883 -0.4364  0.0537 -0.2518
 6457SOL    HW220813   7.796   4.420   2.918 -0.7887 -0.2156  0.5591
 6458SOL     OW20814   2.011   0.697   6.536 -0.1439 -0.3250  0.2153
 6458SOL    HW120815   2.033   0.604   6.545  1.0510  0.0836  2.0873
 6458SOL    HW220816   1.926   0.706   6.580 -0.2495 -0.5374  0.0536
 6459SOL     OW20817   1.486   4.204  11.322  0.2282 -0.2042  0.4292
 6459SOL    HW120818   1.414   4.146  11.296  1.2852 -1.3570 -0.0673
 6459SOL    HW220819   1.564   4.163  11.284  1.4397 -0.1911  2.7200
 6460SOL     OW20820   5.259   7.476   7.759 -0.2304  0.7854 -0.2156
 6460SOL    HW120821   5.266   7.469   7.854  1.8088  0.4955 -0.3284
 6460SOL    HW220822   5.168   7.498   7.742 -1.0823 -0.9700  1.6944
 6461SOL     OW20823   4.343   3.416   3.416  0.3150  0.1695  0.7975
 6461SOL    HW120824   4.250   3.396   3.415  0.6155 -1.4814 -1.4464
 6461SOL    HW220825   4.350   3.498   3.367  0.1465 -0.5686 -0.5125
 6462SOL     OW20826   3.274   3.238   0.435  0.5591  0.3906  0.0160
 6462SOL    HW120827   3.203   3.275   0.488  0.4222 -1.0014  0.8405
 6462SOL    HW220828   3.290   3.152   0.472  2.3087  0.4382 -0.5127
 6463SOL     OW20829   3.409   7.115   6.914 -0.0861  0.2523  0.0545
 6463SOL    HW120830   3.495   7.124   6.954  1.2280  0.2719 -2.5460
 6463SOL    HW220831   3.382   7.025   6.932  0.0335  0.5061  1.6269
 6464SOL     OW20832   7.105   7.916   1.304  0.3013  0.3015 -0.4446
 6464SOL    HW120833   7.111   7.885   1.394 -0.6329  0.1291 -0.4301
 6464SOL    HW220834   7.114   8.011   1.310  1.4437  0.1973 -0.3076
 6465SOL     OW20835   6.988   1.791   7.167 -0.4776 -0.6697  0.1297
 6465SOL    HW120836   7.069   1.741   7.159  0.0760  0.3254 -0.7125
 6465SOL    HW220837   6.990   1.852   7.093 -0.5624  1.3887  1.7376
 6466SOL     OW20838   1.217   3.891   7.851 -0.0940 -0.1708  0.0885
 6466SOL    HW120839   1.215   3.904   7.756 -2.0242 -0.9019 -0.0022
 6466SOL    HW220840   1.264   3.968   7.884 -2.4495  1.9472 -1.1956
 6467SOL     OW20841   2.179   0.782   4.502 -0.4832 -0.0943  0.1022
 6467SOL    HW120842   2.105   0.832   4.469  1.1797  2.4677  0.0069
 6467SOL    HW220843   2.183   0.803   4.596 -0.4114 -0.9569  0.3036
 6468SOL     OW20844   2.275   0.132   9.447  0.0895  0.3537 -0.2480
 6468SOL    HW120845   2.313   0.202   9.395  2.8950 -1.2632 -0.5504
 6468SOL    HW220846   2.319   0.137   9.531  1.6914 -2.0284 -0.8450
 6469SOL     OW20847   6.636   4.269   8.924  0.1176  0.1060  0.0749
 6469SOL    HW120848   6.641   4.206   8.852 -0.4719  1.5007 -1.2536
 6469SOL    HW220849   6.707   4.331   8.906 -0.4629  0.8539  0.2974
 6470SOL     OW20850   7.447   0.827   4.058 -0.8451  0.0676  0.4515
 6470SOL    HW120851   7.466   0.746   4.010 -0.6237 -0.8009  1.9648
 6470SOL    HW220852   7.477   0.897   3.999  0.6533 -1.0148 -0.1344
 6471SOL     OW20853   3.393   4.450   6.768  0.4390  0.6796  0.2782
 6471SOL    HW120854   3.325   4.385   6.785  0.6409  0.6596  1.0487
 6471SOL    HW220855   3.420   4.433   6.678  1.0351 -0.8268  0.7107
 6472SOL     OW20856   3.945   2.457   9.145  0.3691  0.0629 -0.6206
 6472SOL    HW120857   3.918   2.481   9.234  1.5382 -0.6872 -0.0360
 6472SOL    HW220858   3.982   2.537   9.109 -0.4289  0.4653 -0.5768
 6473SOL     OW20859   0.963   0.195  12.245  0.3805  0.0857 -0.4386
 6473SOL    HW120860   0.916   0.177  12.326 -1.0362  0.6519 -1.1150
 6473SOL    HW220861   0.909   0.259  12.199  0.2265 -1.4996 -2.6343
 6474SOL     OW20862   4.691   3.609   1.427  0.4289 -0.1959  0.2333
 6474SOL    HW120863   4.724   3.697   1.445  0.0522 -0.4349  2.2705
 6474SOL    HW220864   4.604   3.623   1.391  1.1303  0.2963 -1.3746
 6475SOL     OW20865   1.219   6.851   5.829 -0.3971  0.2249  0.5448
 6475SOL    HW120866   1.286   6.919   5.818 -0.7286  0.3890 -0.6684
 6475SOL    HW220867   1.231   6.819   5.918  1.6871 -0.1803  0.1645
 6476SOL     OW20868   5.284   5.000   3.279 -0.0328  0.4014  0.0849
 6476SOL    HW120869   5.320   4.997   3.368  0.3234  0.2105 -0.0596
 6476SOL    HW220870   5.360   5.022   3.224 -0.5606  2.0989 -0.0081
 6477SOL     OW20871   4.245   0.316   2.838  0.4227 -0.2107  0.2391
 6477SOL    HW120872   4.230   0.237   2.787 -0.0030 -1.5674  2.3558
 6477SOL    HW220873   4.182   0.311   2.910  1.6825  1.0742  1.4959
 6478SOL     OW20874   7.714   3.270   7.077 -0.3040  0.6216  0.2364
 6478SOL    HW120875   7.713   3.342   7.140  1.8772  1.5181 -0.6634
 6478SOL    HW220876   7.789   3.216   7.104 -0.6328 -0.1338 -0.3424
 6479SOL     OW20877   6.014   7.913   9.659 -0.8855  0.2577  0.3294
 6479SOL    HW120878   5.983   7.912   9.568  1.8703  0.3091 -0.7192
 6479SOL    HW220879   6.002   8.004   9.687  0.0143  0.7310 -0.7180
 6480SOL     OW20880   0.666   6.462   8.204  0.0513 -0.0265  0.0380
 6480SOL    HW120881   0.629   6.409   8.274 -0.4678  0.1045 -0.1370
 6480SOL    HW220882   0.711   6.534   8.249  1.1850 -0.8725  0.2996
 6481SOL     OW20883   6.364   0.008   5.333 -0.0996 -0.8160 -0.0713
 6481SOL    HW120884   6.359   0.074   5.402 -0.4171 -1.2423  0.3190
 6481SOL    HW220885   6.428  -0.056   5.366 -0.6006 -1.2649  0.0486
 6482SOL     OW20886   6.754   4.529   9.201 -0.0050 -0.2961 -0.1399
 6482SOL    HW120887   6.707   4.524   9.117 -1.0201 -0.5503  0.4283
 6482SOL    HW220888   6.690   4.500   9.266  0.8394 -0.3090  0.7057
 6483SOL     OW20889   0.661   0.990   8.552 -0.1562  0.0250 -0.0923
 6483SOL    HW120890   0.629   1.069   8.507 -0.7354 -0.7198 -1.0269
 6483SOL    HW220891   0.736   0.961   8.500 -0.3699 -0.4297 -0.1470
 6484SOL     OW20892   7.743   4.386   8.774 -0.1283 -0.6925 -0.3323
 6484SOL    HW120893   7.793   4.351   8.848 -1.2941  2.5882  2.2437
 6484SOL    HW220894   7.797   4.456   8.739 -0.6448 -0.6335 -1.0371
 6485SOL     OW20895   6.122   1.397  11.845  0.2902 -0.1655  0.0186
 6485SOL    HW120896   6.087   1.460  11.781  0.0664 -1.9785 -1.7621
 6485SOL    HW220897   6.045   1.352  11.878  0.6018 -1.3786 -0.8431
 6486SOL     OW20898   3.952   3.892   4.937 -0.2149 -0.2179 -0.1676
 6486SOL    HW120899   3.919   3.880   5.026 -0.8342 -1.3628 -0.5331
 6486SOL    HW220900   4.014   3.820   4.925 -0.0262  0.0175 -0.6186
 6487SOL     OW20901   6.641   4.127   3.710 -0.2566 -0.1779 -0.1676
 6487SOL    HW120902   6.638   4.087   3.796  0.5335  0.9334  0.3999
 6487SOL    HW220903   6.550   4.152   3.691 -0.4203 -0.3780  0.3626
 6488SOL     OW20904   3.527   3.661   6.016  0.8906 -0.6195  0.4557
 6488SOL    HW120905   3.554   3.584   5.966 -0.0241 -0.4600 -0.3032
 6488SOL    HW220906   3.523   3.732   5.951  0.9594 -0.1066  1.0010
 6489SOL     OW20907   6.504   6.264   1.304  0.1331  0.4419 -0.0155
 6489SOL    HW120908   6.439   6.209   1.261 -2.3620  2.5216  0.8385
 6489SOL    HW220909   6.490   6.250   1.397 -0.5085  2.3421  0.2279
 6490SOL     OW20910   5.465   5.894   0.264  0.0154  0.2506 -0.2143
 6490SOL    HW120911   5.453   5.936   0.179  0.3539  0.6015 -0.0872
 6490SOL    HW220912   5.444   5.962   0.328 -0.3192 -0.0358 -0.0146
 6491SOL     OW20913   7.520   4.340  10.255  0.2518  0.3670  0.3162
 6491SOL    HW120914   7.569   4.298  10.326 -0.0793 -0.8836 -0.1647
 6491SOL    HW220915   7.587   4.371  10.194  0.5145  0.9021  0.8661
 6492SOL     OW20916   3.584   2.195   4.493  1.2344  0.2409  0.1039
 6492SOL    HW120917   3.520   2.233   4.552 -1.5081 -1.2854 -1.6723
 6492SOL    HW220918   3.596   2.105   4.525 -0.1578 -0.5464 -1.4153
 6493SOL     OW20919   4.588   6.367   6.500  0.4157 -0.0658  0.4980
 6493SOL    HW120920   4.604   6.341   6.409  2.2778  2.2500  0.0600
 6493SOL    HW220921   4.667   6.416   6.524 -1.6766  2.8254  2.0233
 6494SOL     OW20922   7.278   0.877   8.192 -0.2880 -0.0255  0.2541
 6494SOL    HW120923   7.280   0.941   8.121  0.0908 -1.0267 -0.6641
 6494SOL    HW220924   7.358   0.893   8.242 -0.4132  0.4970  0.2872
 6495SOL     OW20925   2.433   1.433   3.726  0.3884  0.2503 -0.4741
 6495SOL    HW120926   2.437   1.527   3.740 -1.2331  0.4845 -1.3579
 6495SOL    HW220927   2.522   1.402   3.742  0.6695  1.7353  1.0734
 6496SOL     OW20928   6.244   4.731  10.605  0.3708 -0.7463 -1.2069
 6496SOL    HW120929   6.293   4.799  10.558 -0.1261  0.8137  0.4408
 6496SOL    HW220930   6.257   4.652  10.552 -0.1898  0.8863 -3.9697
 6497SOL     OW20931   1.229   3.410  11.931 -0.0304  0.0965 -0.4206
 6497SOL    HW120932   1.192   3.338  11.981  0.4764 -1.1295 -1.7333
 6497SOL    HW220933   1.236   3.376  11.842  4.9267 -0.1435 -0.2239
 6498SOL     OW20934   6.173   3.987   6.218  0.3280 -0.4167 -0.3255
 6498SOL    HW120935   6.144   4.077   6.203  0.0811 -0.7466 -1.9815
 6498SOL    HW220936   6.168   3.945   6.132 -2.0094 -2.7338  0.7789
 6499SOL     OW20937   6.404   4.352   9.031  0.3406  0.5164 -0.1828
 6499SOL    HW120938   6.343   4.358   8.957  0.8695  0.3528 -0.6400
 6499SOL    HW220939   6.485   4.318   8.993  0.6759  0.5934  0.4439
 6500SOL     OW20940   7.418   1.612   4.779 -0.7996  0.5423  0.4568
 6500SOL    HW120941   7.363   1.619   4.857 -2.3102 -3.1685 -0.1083
 6500SOL    HW220942   7.431   1.518   4.766  1.2279  1.0876 -2.5421
 6501SOL     OW20943   3.244   3.353   5.147 -0.0398  0.0953  0.1010
 6501SOL    HW120944   3.256   3.393   5.234  0.5066  0.3949 -0.1069
 6501SOL    HW220945   3.293   3.410   5.088 -0.0610 -0.3432 -0.3452
 6502SOL     OW20946   5.078   3.756  10.086 -0.2414 -0.1112  0.5257
 6502SOL    HW120947   5.081   3.738  10.180  1.4029 -1.9341  0.1692
 6502SOL    HW220948   5.165   3.789  10.064 -0.9010  1.2416 -0.2279
 6503SOL     OW20949   1.376   0.498   2.816  0.2265 -0.5060  0.1431
 6503SOL    HW120950   1.464   0.501   2.777  0.6519 -0.4398  1.0785
 6503SOL    HW220951   1.392   0.499   2.910 -0.8346  2.2004  0.3967
 6504SOL     OW20952   3.422   3.420  10.100 -0.2470 -0.2459 -0.2203
 6504SOL    HW120953   3.341   3.461  10.131 -1.1733 -0.8913 -1.6802
 6504SOL    HW220954   3.471   3.492  10.059 -0.8532 -0.1498 -0.8020
 6505SOL     OW20955   1.513   7.026   3.785  0.5480 -0.6727  0.0708
 6505SOL    HW120956   1.444   6.993   3.843 -0.0459 -0.6697 -0.6266
 6505SOL    HW220957   1.539   7.110   3.824 -0.2870 -0.3739 -0.0087
 6506SOL     OW20958   0.772   6.445   0.052 -0.1350 -0.1238 -0.2091
 6506SOL    HW120959   0.789   6.525   0.101 -1.6889 -0.4229  0.8988
 6506SOL    HW220960   0.859   6.413   0.028  0.8809 -0.5939  3.4695
 6507SOL     OW20961   4.367   1.278   2.914  0.8193 -0.4087 -0.1727
 6507SOL    HW120962   4.370   1.374   2.906 -2.4092 -0.2540 -0.7413
 6507SOL    HW220963   4.349   1.246   2.826  2.1207 -1.6272 -0.0415
 6508SOL     OW20964   1.185   7.078   0.018 -0.3180 -0.1191  0.4347
 6508SOL    HW120965   1.176   7.020  -0.058  0.3938  0.1378  0.1483
 6508SOL    HW220966   1.156   7.024   0.092  2.0829 -1.5153  0.4500
 6509SOL     OW20967   2.525   7.618   7.373 -0.5052 -0.2989  0.7604
 6509SOL    HW120968   2.518   7.696   7.317 -1.3966 -1.0374 -0.1917
 6509SOL    HW220969   2.465   7.555   7.334  1.3639 -2.0623  0.5427
 6510SOL     OW20970   7.220   5.932  12.307  0.2260  0.2755  0.5654
 6510SOL    HW120971   7.245   5.936  12.399 -1.4594 -0.3647  1.0824
 6510SOL    HW220972   7.131   5.898  12.307  0.1191  0.4204 -1.3015
 6511SOL     OW20973   0.788   1.559   1.334 -0.0663 -0.2791 -0.4844
 6511SOL    HW120974   0.875   1.518   1.340  0.5115  0.7852 -1.1604
 6511SOL    HW220975   0.727   1.486   1.341  0.9332 -1.5930 -3.3676
 6512SOL     OW20976   2.656   7.330   3.702 -0.1810 -0.0987  0.4326
 6512SOL    HW120977   2.722   7.337   3.771 -0.5955 -3.0182  1.2372
 6512SOL    HW220978   2.706   7.315   3.622  0.2191  1.3827  0.3693
 6513SOL     OW20979   0.779   1.453   6.654  0.0117 -0.0613  0.4020
 6513SOL    HW120980   0.752   1.483   6.567 -0.3348  0.2528  0.6137
 6513SOL    HW220981   0.875   1.460   6.653 -0.0375  0.6822  0.3107
 6514SOL     OW20982   7.808   6.659   9.962  0.2817 -0.3235  0.0717
 6514SOL    HW120983   7.874   6.729   9.964  0.2940 -0.3284  1.8150
 6514SOL    HW220984   7.724   6.706   9.958  0.3303 -0.2674 -0.3491
 6515SOL     OW20985   2.125   0.173   2.542 -0.1149  0.5256 -0.3171
 6515SOL    HW120986   2.193   0.157   2.477  0.6281 -0.9654  0.7765
 6515SOL    HW220987   2.057   0.108   2.521 -0.7080  1.2445 -0.6885
 6516SOL     OW20988   3.047   5.421   0.139  0.2702  0.2830  0.1333
 6516SOL    HW120989   2.954   5.399   0.140 -0.5614  3.3139  0.0600
 6516SOL    HW220990   3.079   5.382   0.058 -0.6283 -1.7448  0.6911
 6517SOL     OW20991   6.183   7.707   3.154 -0.2661 -0.0654  0.0366
 6517SOL    HW120992   6.146   7.736   3.071 -1.2394 -0.5220  0.2972
 6517SOL    HW220993   6.129   7.632   3.180 -1.0390  1.0669  1.8761
 6518SOL     OW20994   7.924   3.560   5.732 -0.3068 -0.0163 -0.4833
 6518SOL    HW120995   7.884   3.622   5.671  0.5750  1.3939  0.3178
 6518SOL    HW220996   7.890   3.586   5.818  0.4307 -0.3534 -0.0790
 6519SOL     OW20997   7.327   5.131   9.214  0.1275  0.2412  0.5076
 6519SOL    HW120998   7.294   5.110   9.301  0.5834  0.8266  0.8268
 6519SOL    HW220999   7.382   5.208   9.227  2.3769 -1.2032  0.1676
 6520SOL     OW21000   4.863   4.219   2.613  0.0138  0.0140  0.0343
 6520SOL    HW121001   4.853   4.159   2.539  0.7691  0.3223 -0.3261
 6520SOL    HW221002   4.805   4.293   2.592 -0.7666 -0.4848  0.3848
 6521SOL     OW21003   0.474   5.644  10.090 -0.4115 -0.5853 -0.3682
 6521SOL    HW121004   0.381   5.663  10.100 -0.4538 -1.5217  1.5290
 6521SOL    HW221005   0.481   5.602  10.004 -1.7805 -0.7380 -0.4273
 6522SOL     OW21006   2.080   2.841   2.788  0.0110  0.6372 -0.1200
 6522SOL    HW121007   1.999   2.811   2.746 -0.3595 -1.3342  1.8089
 6522SOL    HW221008   2.115   2.907   2.729 -3.4310  2.1955 -0.6435
 6523SOL     OW21009   2.618   2.961   7.078  0.2395  0.1910  0.0689
 6523SOL    HW121010   2.595   3.016   7.153 -1.2710 -0.9694  0.5226
 6523SOL    HW221011   2.546   2.972   7.017  0.9080  0.2463 -0.7303
 6524SOL     OW21012   6.920   7.869  12.106 -0.6224  0.3860  0.5599
 6524SOL    HW121013   6.900   7.780  12.077 -1.8786  1.2538 -1.4200
 6524SOL    HW221014   7.005   7.861  12.150 -0.0533 -1.5592 -0.7663
 6525SOL     OW21015   2.109   2.189   9.219 -0.6430  0.2577 -0.1074
 6525SOL    HW121016   2.116   2.281   9.194  0.7046  0.2961  0.3523
 6525SOL    HW221017   2.196   2.153   9.207 -1.8304 -1.9056 -3.6213
 6526SOL     OW21018   4.980   3.290  10.410  0.4482  0.0733 -0.5948
 6526SOL    HW121019   5.059   3.254  10.369  1.3920  1.3339  0.0401
 6526SOL    HW221020   4.944   3.349  10.344 -0.7163 -1.4378 -1.3730
 6527SOL     OW21021   2.076   3.184   9.745  0.1373 -0.5748  0.5037
 6527SOL    HW121022   2.119   3.099   9.738  0.7504 -0.3662  1.4410
 6527SOL    HW221023   2.036   3.199   9.660  2.6893 -0.3772 -0.7381
 6528SOL     OW21024   4.302   2.520  12.009  0.4918  0.3686  0.3105
 6528SOL    HW121025   4.320   2.499  12.101 -0.2009 -1.3887  0.0846
 6528SOL    HW221026   4.213   2.554  12.009 -0.1736 -1.2944  0.1090
 6529SOL     OW21027   5.719   0.627   9.524 -0.3365  0.6726  0.0851
 6529SOL    HW121028   5.682   0.610   9.611 -0.2270  0.1139  0.0304
 6529SOL    HW221029   5.676   0.563   9.467  1.1614 -0.4386  0.1401
 6530SOL     OW21030   1.732   7.394   2.220  0.1057  0.0817 -0.1479
 6530SOL    HW121031   1.642   7.368   2.198 -0.0983  2.7513 -3.2468
 6530SOL    HW221032   1.787   7.341   2.161  0.5721 -0.9976  1.2085
 6531SOL     OW21033   3.673   5.831   5.514 -0.4119  0.1122 -0.2510
 6531SOL    HW121034   3.760   5.845   5.476  0.0071  1.5412  1.1155
 6531SOL    HW221035   3.613   5.834   5.440  0.4293  2.2375 -0.9367
 6532SOL     OW21036   7.408   1.670   2.970  0.2047 -0.2109 -0.4842
 6532SOL    HW121037   7.361   1.609   3.026  0.9707 -0.5955 -0.2414
 6532SOL    HW221038   7.412   1.751   3.021 -2.4556  0.6997 -1.5551
 6533SOL     OW21039   4.606   5.004   8.964  0.5865 -0.2810  0.4640
 6533SOL    HW121040   4.582   4.911   8.959  1.9608 -0.7426  1.5070
 6533SOL    HW221041   4.524   5.049   8.982  0.0181 -1.4017  0.8057
 6534SOL     OW21042   7.696   6.889   9.121  0.5056 -0.4495 -0.8884
 6534SOL    HW121043   7.662   6.900   9.209  3.2619  0.4880  0.1936
 6534SOL    HW221044   7.679   6.973   9.078 -0.1519 -0.6312 -0.9848
 6535SOL     OW21045   4.937   7.474   0.938  0.0510  0.3307  0.2375
 6535SOL    HW121046   4.902   7.393   0.903 -2.3559  0.7867  1.3951
 6535SOL    HW221047   4.921   7.469   1.032  1.4413  1.4327  0.5715
 6536SOL     OW21048   6.948   4.451   3.428  0.2642 -0.5137  0.3602
 6536SOL    HW121049   6.912   4.511   3.362 -0.0642  0.4237  1.3721
 6536SOL    HW221050   6.874   4.393   3.450  0.5386 -1.2187 -0.5008
 6537SOL     OW21051   5.889   0.595   7.816 -0.2708 -0.4564  0.0673
 6537SOL    HW121052   5.858   0.684   7.835  1.4724 -0.0577  1.2337
 6537SOL    HW221053   5.984   0.599   7.830 -0.2329 -2.6738  0.8333
 6538SOL     OW21054   2.168   2.708   6.569  0.0922  0.2527 -0.1878
 6538SOL    HW121055   2.107   2.777   6.542  0.7584  0.4747 -1.1911
 6538SOL    HW221056   2.216   2.746   6.643 -0.5540  0.3055  0.2083
 6539SOL     OW21057   7.549   3.899   2.845  0.3714  0.5723 -0.9201
 6539SOL    HW121058   7.512   3.961   2.782 -0.0686  0.2108 -1.0177
 6539SOL    HW221059   7.592   3.955   2.911  0.5065  0.9605 -1.3347
 6540SOL     OW21060   6.076   3.890  11.966  0.2821  0.1500 -0.0526
 6540SOL    HW121061   6.144   3.823  11.976 -1.1287 -1.3388  0.0800
 6540SOL    HW221062   6.122   3.967  11.933  2.1126 -0.6085  0.6209
 6541SOL     OW21063   7.316   6.426   4.627  0.2851 -0.5075  0.0532
 6541SOL    HW121064   7.237   6.379   4.651  0.1560 -0.4828 -0.3174
 6541SOL    HW221065   7.284   6.510   4.591  0.4400 -0.7900 -0.7751
 6542SOL     OW21066   4.350   3.427   0.294 -0.4043 -0.2216  0.6348
 6542SOL    HW121067   4.363   3.349   0.239  0.6379 -0.6509  1.4478
 6542SOL    HW221068   4.435   3.470   0.295 -1.2687  1.6794 -0.8328
 6543SOL     OW21069   1.158   2.425   4.282  0.4165  0.2437 -0.0034
 6543SOL    HW121070   1.137   2.398   4.371  0.0534 -1.1562 -0.4859
 6543SOL    HW221071   1.073   2.427   4.237  0.7096 -0.1624 -0.5925
 6544SOL     OW21072   1.899   5.254   5.651 -0.3280  0.1063 -0.1210
 6544SOL    HW121073   1.961   5.183   5.638 -0.3333 -0.3012  1.7675
 6544SOL    HW221074   1.818   5.223   5.609  0.1874 -0.1631 -0.9461
 6545SOL     OW21075   6.859   4.333  10.274  0.0725  0.3108 -0.6101
 6545SOL    HW121076   6.917   4.260  10.297 -2.1252 -1.0851  0.8057
 6545SOL    HW221077   6.857   4.387  10.353  0.5770  1.1990 -1.1785
 6546SOL     OW21078   0.061   5.690   2.921 -0.3078  0.5489  0.1283
 6546SOL    HW121079   0.013   5.740   2.987 -0.6214  0.2307  0.1452
 6546SOL    HW221080   0.152   5.713   2.934 -0.4891  1.4537 -0.1475
 6547SOL     OW21081   7.686   3.323   5.382  0.2766  0.2338  0.3598
 6547SOL    HW121082   7.773   3.285   5.394 -0.4827 -1.4264  0.9496
 6547SOL    HW221083   7.641   3.262   5.324 -0.2978  1.4334 -0.4902
 6548SOL     OW21084   6.830   6.749   5.953  0.1534  0.1480  0.5283
 6548SOL    HW121085   6.750   6.799   5.936  0.3503  0.1595 -0.3994
 6548SOL    HW221086   6.863   6.726   5.866  0.2971 -1.2359  0.9298
 6549SOL     OW21087   4.546   1.830  12.221 -0.8131 -0.3516  0.5803
 6549SOL    HW121088   4.507   1.814  12.308 -1.8637  0.4836  0.2910
 6549SOL    HW221089   4.539   1.925  12.209 -1.8589 -0.5815 -0.9373
 6550SOL     OW21090   6.181   4.872   6.024  0.0182  0.0090  0.1291
 6550SOL    HW121091   6.110   4.816   6.057 -0.7054 -0.1164 -1.5185
 6550SOL    HW221092   6.141   4.957   6.010 -0.0957 -0.2843 -1.6360
 6551SOL     OW21093   4.128   2.972   0.932 -0.5108 -1.0172 -0.3534
 6551SOL    HW121094   4.153   2.910   0.864 -1.6227 -0.9448 -0.8545
 6551SOL    HW221095   4.193   2.959   1.002 -0.2472 -2.1669 -0.7875
 6552SOL     OW21096   2.601   1.753   5.488  0.2333 -0.2993  0.0894
 6552SOL    HW121097   2.628   1.661   5.486  2.5373  0.2878  0.9333
 6552SOL    HW221098   2.592   1.773   5.581 -1.8509 -0.0493 -0.1259
 6553SOL     OW21099   2.249   1.751  12.226 -0.4909  0.2243  0.3621
 6553SOL    HW121100   2.337   1.721  12.205 -0.3917 -1.0361  2.3231
 6553SOL    HW221101   2.191   1.687  12.185 -0.6491  1.9015 -2.2694
 6554SOL     OW21102   7.501   2.240   4.193 -0.6262 -0.0203 -0.1321
 6554SOL    HW121103   7.559   2.167   4.170 -2.0674 -0.7770 -1.5372
 6554SOL    HW221104   7.413   2.204   4.186 -1.4156  1.9486 -1.2795
 6555SOL     OW21105   2.978   2.266   5.504  0.0814  0.4516 -0.2084
 6555SOL    HW121106   3.019   2.245   5.589  0.5434  1.4068 -0.1815
 6555SOL    HW221107   3.007   2.356   5.486  0.5825  0.0003 -1.7285
 6556SOL     OW21108   0.575   4.383  10.853 -0.5676  0.0494 -0.1971
 6556SOL    HW121109   0.631   4.330  10.796 -0.1859 -0.3518  0.5371
 6556SOL    HW221110   0.636   4.432  10.908 -0.9269 -0.4779  0.6946
 6557SOL     OW21111   7.294   0.253   6.138 -0.1734  0.0558 -0.0890
 6557SOL    HW121112   7.204   0.285   6.142 -0.3697 -0.3737 -0.8692
 6557SOL    HW221113   7.346   0.321   6.181 -0.7166  0.9039 -0.7316
 6558SOL     OW21114   7.453   4.908   7.724  0.7039  0.2904  0.0926
 6558SOL    HW121115   7.372   4.866   7.755  0.7283 -0.1429 -0.4046
 6558SOL    HW221116   7.523   4.856   7.764  0.7332  0.1365 -0.1547
 6559SOL     OW21117   6.672   4.038   2.391 -0.4219 -0.2354 -0.4852
 6559SOL    HW121118   6.597   3.985   2.417  1.1719 -1.6715  1.4235
 6559SOL    HW221119   6.709   3.992   2.315 -0.1562 -0.7887 -0.0195
 6560SOL     OW21120   1.854   7.238   9.085 -0.8104 -0.2813  0.3185
 6560SOL    HW121121   1.822   7.280   9.165 -2.6546 -1.9318  0.5337
 6560SOL    HW221122   1.793   7.167   9.069  0.3090 -0.8651 -1.8291
 6561SOL     OW21123   5.281   2.208  10.657  0.2631  1.1031  0.0611
 6561SOL    HW121124   5.202   2.157  10.672  0.1702  1.1743 -0.1961
 6561SOL    HW221125   5.290   2.213  10.562  1.0016  0.4343  0.0878
 6562SOL     OW21126   5.161   5.253   1.370 -0.5247  0.0962 -0.0269
 6562SOL    HW121127   5.221   5.321   1.399  0.9190 -1.5547  1.0275
 6562SOL    HW221128   5.216   5.191   1.322 -1.7493 -0.4813 -0.7283
 6563SOL     OW21129   3.533   2.080   2.745 -0.4057  0.2637 -0.0574
 6563SOL    HW121130   3.599   2.066   2.813 -1.9965 -2.5213  1.1302
 6563SOL    HW221131   3.573   2.048   2.665  0.1785 -0.1437  0.3866
 6564SOL     OW21132   0.196   4.059   2.641 -0.2441 -0.0681  0.9735
 6564SOL    HW121133   0.186   4.015   2.557 -1.8889  2.2843 -0.2010
 6564SOL    HW221134   0.222   3.990   2.702 -0.5767 -2.1753 -1.1212
 6565SOL     OW21135   3.347   1.342   9.794  0.4153 -0.3035 -0.5713
 6565SOL    HW121136   3.335   1.361   9.888  1.3687 -0.7866 -0.3428
 6565SOL    HW221137   3.419   1.399   9.768 -1.9737  2.3921 -1.8690
 6566SOL     OW21138   3.124   7.190   6.985  0.0744 -0.2360 -0.2375
 6566SOL    HW121139   3.062   7.210   6.915 -0.5612  1.7908  0.8240
 6566SOL    HW221140   3.203   7.161   6.940 -0.4600  0.5868 -1.7726
 6567SOL     OW21141   7.428   3.195   8.116  0.2479  0.2279 -0.2354
 6567SOL    HW121142   7.460   3.246   8.190  0.9549 -0.3387 -0.1400
 6567SOL    HW221143   7.473   3.233   8.040 -0.0050  0.4066 -0.2967
 6568SOL     OW21144   5.631   6.002   4.679  1.1261  0.3112  0.1361
 6568SOL    HW121145   5.633   6.079   4.622  1.3072  0.4121  0.2757
 6568SOL    HW221146   5.717   6.001   4.720  0.6512  0.8278  1.1897
 6569SOL     OW21147   3.937   6.252   0.497  0.5536  0.0054 -0.5149
 6569SOL    HW121148   3.895   6.317   0.440 -0.6560 -0.6894 -0.4244
 6569SOL    HW221149   3.939   6.172   0.444  1.1484 -0.1562 -0.2584
 6570SOL     OW21150   0.879   1.913  10.086 -0.2197 -0.5514 -0.1494
 6570SOL    HW121151   0.873   1.933  10.179  1.1392  3.5158 -0.7492
 6570SOL    HW221152   0.970   1.931  10.063 -1.1725  1.6086 -2.7340
 6571SOL     OW21153   0.814   4.705   7.389  0.3857 -1.0069  0.1721
 6571SOL    HW121154   0.748   4.754   7.340 -0.1620 -1.1110  0.7887
 6571SOL    HW221155   0.836   4.762   7.463  2.6933  0.0519 -1.2265
 6572SOL     OW21156   5.152   1.587   7.875  0.1022  0.2807 -0.6099
 6572SOL    HW121157   5.141   1.565   7.783 -0.5464  1.0176 -0.7154
 6572SOL    HW221158   5.221   1.528   7.905  0.4710  0.1810 -1.6127
 6573SOL     OW21159   5.331   4.593   6.011 -0.0923  0.1661  0.2857
 6573SOL    HW121160   5.321   4.512   5.961  1.7425  0.0505  0.0444
 6573SOL    HW221161   5.322   4.662   5.945  0.2415  0.0891  0.1579
 6574SOL     OW21162   7.047   3.595   7.523 -0.2936 -0.8241 -0.1146
 6574SOL    HW121163   6.956   3.620   7.507 -0.1593 -0.1515  0.1281
 6574SOL    HW221164   7.047   3.562   7.613 -0.1308  0.0655  0.2225
 6575SOL     OW21165   7.453   1.547   3.605  0.7514 -0.3858  0.4086
 6575SOL    HW121166   7.377   1.521   3.657 -0.8496  2.3673 -0.3589
 6575SOL    HW221167   7.425   1.537   3.514  1.9573 -0.9350  0.0728
 6576SOL     OW21168   2.397   7.531   3.266  0.4624  0.3767  0.3147
 6576SOL    HW121169   2.449   7.461   3.306  2.2866  2.3922  1.6571
 6576SOL    HW221170   2.442   7.550   3.183  0.4597  0.5219  0.3462
 6577SOL     OW21171   7.467   7.525   7.719  0.2469  0.1410 -0.7011
 6577SOL    HW121172   7.407   7.600   7.722  2.4786  2.0077  0.6931
 6577SOL    HW221173   7.469   7.492   7.808 -0.6858 -1.6232 -1.2982
 6578SOL     OW21174   5.436   5.449   1.236  0.3669 -0.2400  0.8385
 6578SOL    HW121175   5.512   5.508   1.231  0.0481  0.1022 -0.5916
 6578SOL    HW221176   5.465   5.370   1.190 -0.7508  0.6494 -1.5551
 6579SOL     OW21177   4.783   7.329  10.503  0.0103 -0.0862 -0.0411
 6579SOL    HW121178   4.761   7.361  10.415 -1.1326  1.4898  0.7581
 6579SOL    HW221179   4.699   7.304  10.541  0.5254 -0.9972  0.5189
 6580SOL     OW21180   0.395   4.083  10.157  0.1475 -0.7937  0.5021
 6580SOL    HW121181   0.402   4.086  10.252  1.2403 -1.6096  0.4587
 6580SOL    HW221182   0.311   4.126  10.138 -0.1041 -0.6618  1.8245
 6581SOL     OW21183   7.752   7.386   7.514 -0.2282 -0.3290 -0.2434
 6581SOL    HW121184   7.749   7.312   7.575 -0.1325 -1.8533 -1.9946
 6581SOL    HW221185   7.845   7.403   7.501 -0.2069  1.9200  2.1540
 6582SOL     OW21186   4.364   0.998   1.040  0.6470  0.3465 -0.2138
 6582SOL    HW121187   4.362   0.909   1.005  2.1492  0.3862 -0.5130
 6582SOL    HW221188   4.418   0.991   1.118 -2.4836  0.3116  2.1161
 6583SOL     OW21189   2.493   6.494   4.710 -0.7525 -0.0451  0.4187
 6583SOL    HW121190   2.494   6.580   4.667  0.5261 -0.1392  0.2492
 6583SOL    HW221191   2.502   6.514   4.803 -1.6306  0.0546  0.4920
 6584SOL     OW21192   5.249   6.249   6.272  0.1536 -0.5921  0.1023
 6584SOL    HW121193   5.268   6.305   6.348 -0.3902 -0.8613  0.4443
 6584SOL    HW221194   5.153   6.247   6.268  0.1167  1.2420 -1.9433
 6585SOL     OW21195   3.094   5.563   5.401  0.1741 -0.4195  0.3415
 6585SOL    HW121196   3.010   5.607   5.413 -1.0069 -2.1876 -0.9154
 6585SOL    HW221197   3.148   5.627   5.356 -1.2604  0.0352 -0.8230
 6586SOL     OW21198   1.109   1.202   7.490 -0.0234  0.1206 -0.0031
 6586SOL    HW121199   1.187   1.152   7.515 -0.1744  0.3209  0.9111
 6586SOL    HW221200   1.131   1.292   7.514 -1.2823 -0.0902  2.1938
 6587SOL     OW21201   7.387   3.364   3.600 -0.2114  0.0523 -0.5417
 6587SOL    HW121202   7.463   3.331   3.552  2.3488  1.6822  2.0362
 6587SOL    HW221203   7.359   3.441   3.550  0.6847  0.1736 -0.8835
 6588SOL     OW21204   3.589   5.769  11.233 -0.3502 -0.6380  0.2574
 6588SOL    HW121205   3.528   5.753  11.161  0.5688 -0.6064 -0.5637
 6588SOL    HW221206   3.665   5.714  11.212  0.5369  0.4947  0.4048
 6589SOL     OW21207   4.746   6.693   1.163 -0.7360 -0.1652  0.1864
 6589SOL    HW121208   4.692   6.659   1.234  0.1042 -2.8611 -0.3595
 6589SOL    HW221209   4.686   6.700   1.088 -2.0501  4.2543  1.3074
 6590SOL     OW21210   7.430   1.627   7.868 -0.6340 -0.1031  0.0944
 6590SOL    HW121211   7.476   1.702   7.904  0.2755 -0.0765 -1.0629
 6590SOL    HW221212   7.454   1.554   7.925  0.6056 -0.0214 -0.2848
 6591SOL     OW21213   1.269   5.742   0.268 -0.3330  0.0812 -0.4311
 6591SOL    HW121214   1.324   5.792   0.207  0.9550 -0.4463  0.2812
 6591SOL    HW221215   1.194   5.715   0.214  0.0299  0.8952 -1.3907
 6592SOL     OW21216   2.589   1.094   5.992  0.3747 -0.1545  0.3158
 6592SOL    HW121217   2.554   1.008   5.972  1.3277 -0.5842  0.4219
 6592SOL    HW221218   2.514   1.144   6.022 -0.3013 -0.7594 -0.3270
 6593SOL     OW21219   5.594   5.216   4.383  0.2045 -0.1863 -0.0847
 6593SOL    HW121220   5.528   5.261   4.331  0.5541 -0.5335 -0.8464
 6593SOL    HW221221   5.665   5.280   4.393 -0.0856  0.0600  0.4183
 6594SOL     OW21222   5.371   1.969   2.779  0.0855 -0.4382 -0.1991
 6594SOL    HW121223   5.302   1.953   2.715  0.5870  0.0427 -0.8693
 6594SOL    HW221224   5.451   1.977   2.728  0.1982  2.0749  0.2447
 6595SOL     OW21225   2.445   4.706   6.213  0.0383 -0.4474 -0.4690
 6595SOL    HW121226   2.500   4.727   6.137 -1.2202  2.1181 -0.7571
 6595SOL    HW221227   2.436   4.788   6.260 -1.1706 -1.4755  1.1861
 6596SOL     OW21228   0.596   1.326  10.152 -0.1199  0.1033  0.2532
 6596SOL    HW121229   0.530   1.291  10.212  0.3484 -0.5595  0.3948
 6596SOL    HW221230   0.546   1.353  10.075 -0.5048 -0.9251  0.1193
 6597SOL     OW21231   3.341   5.595   9.654 -0.0999  0.2248 -0.6966
 6597SOL    HW121232   3.377   5.651   9.723 -2.2419 -0.4083  1.0520
 6597SOL    HW221233   3.279   5.652   9.608  0.6981  0.4017 -1.5754
 6598SOL     OW21234   7.255   3.084   5.638  0.0951  0.4978 -0.0856
 6598SOL    HW121235   7.297   3.081   5.724  0.1216  0.2632 -0.1056
 6598SOL    HW221236   7.325   3.110   5.578 -0.0126  1.0292  0.0185
 6599SOL     OW21237   6.844   7.431   2.411  0.6760 -0.3172  0.5906
 6599SOL    HW121238   6.785   7.356   2.409  2.1877 -1.6431  2.1977
 6599SOL    HW221239   6.798   7.496   2.464 -1.3599  0.6462 -2.1545
 6600SOL     OW21240   0.510   6.486   2.796 -0.1422 -0.2195 -0.2059
 6600SOL    HW121241   0.478   6.457   2.882  0.4614 -0.3358 -0.0082
 6600SOL    HW221242   0.585   6.428   2.779  0.7853  0.8949 -0.0338
 6601SOL     OW21243   4.066   4.980  12.239  0.4934  0.3082 -0.6753
 6601SOL    HW121244   4.020   5.056  12.203 -1.2771 -0.6006 -0.4424
 6601SOL    HW221245   4.052   4.986  12.334 -1.2503 -1.2389 -0.7836
 6602SOL     OW21246   6.494   1.158   8.054  0.3871 -0.9015  0.0159
 6602SOL    HW121247   6.466   1.066   8.059 -1.1055 -0.5180 -0.8644
 6602SOL    HW221248   6.435   1.205   8.112  0.6081 -0.3764 -0.1759
 6603SOL     OW21249   0.558   1.209   6.578 -0.8359  0.4705 -0.2730
 6603SOL    HW121250   0.636   1.265   6.581 -0.4836  0.0063 -0.5222
 6603SOL    HW221251   0.509   1.232   6.657  0.6745 -0.8273  1.1182
 6604SOL     OW21252   6.012   1.543   3.237 -0.0932  0.1220  0.6753
 6604SOL    HW121253   5.918   1.552   3.254 -0.6723  0.0963 -2.0288
 6604SOL    HW221254   6.041   1.475   3.298 -2.1639 -0.9219  0.5865
 6605SOL     OW21255   1.742   7.292   4.508  0.6896 -0.8794 -0.3192
 6605SOL    HW121256   1.656   7.334   4.502  0.3825 -1.3541  0.6668
 6605SOL    HW221257   1.801   7.352   4.462  0.4935  1.3218  2.0807
 6606SOL     OW21258   4.689   4.276   3.007 -0.0791  0.0665 -0.0301
 6606SOL    HW121259   4.731   4.209   2.952 -1.3184  0.5508 -1.6598
 6606SOL    HW221260   4.709   4.358   2.962 -2.4359  0.3381 -0.6730
 6607SOL     OW21261   7.258   3.488  10.980  0.1550  1.0739 -0.1390
 6607SOL    HW121262   7.164   3.503  10.970  0.1418  1.4786  0.4899
 6607SOL    HW221263   7.282   3.432  10.906 -0.6228  0.7756 -0.1736
 6608SOL     OW21264   6.863   2.169   5.502 -0.4491 -0.3464  0.5715
 6608SOL    HW121265   6.810   2.123   5.566  2.5039 -2.5120  1.7098
 6608SOL    HW221266   6.838   2.132   5.417 -1.4770 -0.4994  0.9367
 6609SOL     OW21267   3.570   1.710  10.455 -0.2664  0.3684  0.2971
 6609SOL    HW121268   3.585   1.773  10.526  1.7230 -0.0667  0.3214
 6609SOL    HW221269   3.560   1.626  10.500  1.5591  0.0023  0.0768
 6610SOL     OW21270   0.352   4.989   0.293 -0.2307 -0.4487 -0.3245
 6610SOL    HW121271   0.371   4.977   0.386  0.2415 -0.8767 -0.4718
 6610SOL    HW221272   0.256   4.994   0.289 -0.2287  0.1512  0.2464
 6611SOL     OW21273   1.477   1.977   2.612 -0.0077 -1.7612 -0.1295
 6611SOL    HW121274   1.411   2.020   2.558  1.6245  0.2195 -0.6632
 6611SOL    HW221275   1.467   2.016   2.698  2.3949  0.9648 -0.9424
 6612SOL     OW21276   5.950   1.581   2.581 -0.2293 -0.0131 -0.3336
 6612SOL    HW121277   6.033   1.622   2.604 -0.5149  0.8393 -0.7827
 6612SOL    HW221278   5.969   1.487   2.579  0.3637  0.0542  1.0221
 6613SOL     OW21279   2.693   6.890   8.495  0.8931 -0.1866 -0.9222
 6613SOL    HW121280   2.606   6.895   8.535  1.7889 -0.1832  1.1650
 6613SOL    HW221281   2.743   6.957   8.541  2.7813 -2.1560  0.0498
 6614SOL     OW21282   1.633   7.522   3.370  0.1309  0.0141 -1.2130
 6614SOL    HW121283   1.647   7.609   3.333  1.1241  0.0278 -0.8465
 6614SOL    HW221284   1.703   7.468   3.331  0.4533 -0.2503 -0.2892
 6615SOL     OW21285   0.990   5.394  11.031 -0.0392  0.1805  0.1856
 6615SOL    HW121286   0.984   5.358  10.943  0.1046 -1.4913  0.8337
 6615SOL    HW221287   0.941   5.333  11.086 -0.2339  1.2630  1.2626
 6616SOL     OW21288   7.587   0.824   2.038 -0.0698 -0.2962  0.1993
 6616SOL    HW121289   7.601   0.918   2.051 -1.9712  0.1692 -0.7565
 6616SOL    HW221290   7.545   0.794   2.118  0.8026 -0.4223  0.6245
 6617SOL     OW21291   4.734   5.157   8.742 -0.3019 -0.3333  0.1991
 6617SOL    HW121292   4.775   5.101   8.677  1.2186 -0.4322  1.1956
 6617SOL    HW221293   4.690   5.097   8.802 -0.7143 -0.3088 -0.0750
 6618SOL     OW21294   0.885   2.546   2.447  0.4977 -0.1138 -0.0205
 6618SOL    HW121295   0.937   2.617   2.408  0.3558 -0.1789 -0.3308
 6618SOL    HW221296   0.870   2.485   2.375  0.8196 -0.5797  0.2976
 6619SOL     OW21297   0.907   0.405   1.425  0.4470  0.0131  0.4003
 6619SOL    HW121298   0.929   0.354   1.347 -0.9642 -0.1644  0.0835
 6619SOL    HW221299   0.905   0.340   1.495  2.7026  0.3273  0.8262
 6620SOL     OW21300   4.454   2.415   2.432 -0.3140  0.1636 -0.5654
 6620SOL    HW121301   4.388   2.477   2.400 -0.2766 -0.2996 -1.5807
 6620SOL    HW221302   4.517   2.469   2.479 -1.8019  0.5285  1.1200
 6621SOL     OW21303   0.338   2.288   1.483 -0.5724 -0.1238 -0.0358
 6621SOL    HW121304   0.317   2.370   1.527  1.8010  0.7494 -0.3560
 6621SOL    HW221305   0.344   2.224   1.553 -1.0585  0.2844  0.3882
 6622SOL     OW21306   3.763   4.136   5.018 -0.5550 -0.2751 -0.1191
 6622SOL    HW121307   3.826   4.064   5.022 -0.2505  0.0296  0.5488
 6622SOL    HW221308   3.806   4.202   4.964 -0.0413  0.1861  0.8453
 6623SOL     OW21309   7.127   1.663   8.341  0.0336 -0.0036 -0.4986
 6623SOL    HW121310   7.148   1.752   8.369 -0.1665 -0.3520  0.8180
 6623SOL    HW221311   7.199   1.609   8.373  1.2690 -0.0533 -3.1568
 6624SOL     OW21312   6.190   5.412   7.043 -0.2885  0.1636  0.3407
 6624SOL    HW121313   6.217   5.397   7.134 -1.1793  0.9734  0.7498
 6624SOL    HW221314   6.244   5.485   7.014  0.6524 -0.6722 -0.1085
 6625SOL     OW21315   3.883   3.088   6.230  0.4020  0.0387 -0.2393
 6625SOL    HW121316   3.859   3.099   6.138  1.3639  0.5062 -0.4399
 6625SOL    HW221317   3.933   3.007   6.233 -0.9603 -0.8184  0.1461
 6626SOL     OW21318   6.498   4.085  10.315  0.0349 -0.1865 -0.3315
 6626SOL    HW121319   6.457   4.167  10.341  1.6175  0.4153  0.4002
 6626SOL    HW221320   6.428   4.020  10.321 -0.9267  0.8735  0.3607
 6627SOL     OW21321   2.644   1.551   1.468  0.0251  0.7248  0.2473
 6627SOL    HW121322   2.707   1.481   1.486 -1.2620 -1.0278 -1.5072
 6627SOL    HW221323   2.666   1.581   1.380 -1.2091  0.4613 -0.1795
 6628SOL     OW21324   0.285   6.636  12.052  0.3302 -0.1571  0.3092
 6628SOL    HW121325   0.305   6.726  12.027  1.5412 -1.0321 -2.1198
 6628SOL    HW221326   0.191   6.627  12.037 -0.0497  0.9971  1.7551
 6629SOL     OW21327   3.623   0.774  10.764  0.3437 -0.6254  0.6486
 6629SOL    HW121328   3.644   0.806  10.851  0.0296 -1.1556  0.9300
 6629SOL    HW221329   3.688   0.814  10.706 -0.2551  0.7964  0.9146
 6630SOL     OW21330   2.415   6.647   9.479  0.9789  0.4151 -0.1431
 6630SOL    HW121331   2.409   6.580   9.547 -0.5770 -0.0240 -0.6591
 6630SOL    HW221332   2.475   6.611   9.414 -1.2609 -1.4102 -1.3377
 6631SOL     OW21333   0.823   7.327   5.543  0.1360 -0.3329  0.3851
 6631SOL    HW121334   0.887   7.394   5.568  1.1321 -1.3703  0.6986
 6631SOL    HW221335   0.746   7.377   5.515 -0.6024  1.0005  4.1337
 6632SOL     OW21336   4.498   1.754   1.711  0.1647 -0.1179  0.0385
 6632SOL    HW121337   4.557   1.800   1.651  1.3668 -2.5747 -0.8206
 6632SOL    HW221338   4.555   1.720   1.780 -0.9163  0.9190  1.5147
 6633SOL     OW21339   4.366   2.201  11.517  0.5939  0.0127 -0.1158
 6633SOL    HW121340   4.432   2.138  11.544  0.3976  0.3018  1.0860
 6633SOL    HW221341   4.377   2.275  11.576 -0.7327  0.1061  0.0517
 6634SOL     OW21342   0.793   2.710   0.746  0.1969  0.7005  0.2382
 6634SOL    HW121343   0.843   2.680   0.671 -2.3891 -1.5719 -0.7262
 6634SOL    HW221344   0.835   2.670   0.822 -0.0699 -1.1050 -0.5364
 6635SOL     OW21345   7.652   1.336   9.391  0.1696 -0.4769 -0.0037
 6635SOL    HW121346   7.735   1.301   9.424  0.9615 -0.5084 -1.9361
 6635SOL    HW221347   7.620   1.269   9.331 -1.8827 -0.9961  1.5383
 6636SOL     OW21348   0.161   0.716   3.200 -0.2634 -0.6250 -0.3712
 6636SOL    HW121349   0.113   0.778   3.256  0.1576  0.0860 -0.7775
 6636SOL    HW221350   0.254   0.733   3.219 -0.1430 -1.2032 -0.4181
 6637SOL     OW21351   2.015   4.374   6.245 -0.7171  0.5428 -0.3896
 6637SOL    HW121352   2.054   4.293   6.279 -0.5987  1.2178  1.1879
 6637SOL    HW221353   2.067   4.444   6.285 -2.4492  1.4367  0.4373
 6638SOL     OW21354   5.090   3.727   5.753 -0.1460 -0.2823  0.1466
 6638SOL    HW121355   5.111   3.758   5.841  0.7164  0.5652 -0.3359
 6638SOL    HW221356   5.174   3.703   5.715 -0.7900 -3.9796  0.6959
 6639SOL     OW21357   3.884   6.020   3.314  0.1795  0.5385  0.0981
 6639SOL    HW121358   3.852   6.047   3.228 -1.2958 -1.0342  0.0910
 6639SOL    HW221359   3.973   6.054   3.319  0.5383  0.1195 -2.3304
 6640SOL     OW21360   2.995   7.965   5.955  0.0340 -0.1141 -0.0976
 6640SOL    HW121361   2.926   8.007   5.904  1.9229  3.8266  0.1580
 6640SOL    HW221362   2.986   8.004   6.043  0.5939 -2.0668  0.8864
 6641SOL     OW21363   6.650   3.040   6.344 -0.1996 -0.0558 -0.4463
 6641SOL    HW121364   6.677   3.077   6.260 -2.0851 -0.4289 -1.2726
 6641SOL    HW221365   6.613   3.113   6.392  0.6010  0.0953 -0.0440
 6642SOL     OW21366   7.465   6.105   5.133  0.0006  0.4732  0.0986
 6642SOL    HW121367   7.436   6.189   5.168  2.4471  0.5553  2.1588
 6642SOL    HW221368   7.519   6.129   5.057 -0.5804  0.6249 -0.2804
 6643SOL     OW21369   5.009   4.582   9.822 -0.6779  0.2266  0.0241
 6643SOL    HW121370   5.012   4.678   9.826  1.3647  0.2539 -0.8073
 6643SOL    HW221371   4.980   4.556   9.909  0.6666  1.5839  0.9481
 6644SOL     OW21372   7.817   7.507   5.639 -0.0898 -0.1716  0.1378
 6644SOL    HW121373   7.836   7.426   5.686  2.1544 -0.0793 -0.4825
 6644SOL    HW221374   7.727   7.529   5.664  0.0865 -1.5283  2.2452
 6645SOL     OW21375   5.024   2.218   8.173  0.5251 -0.1671 -0.0379
 6645SOL    HW121376   5.046   2.147   8.113  0.2216 -0.0465 -0.2949
 6645SOL    HW221377   4.950   2.185   8.224  0.5238 -0.1173 -0.0066
 6646SOL     OW21378   6.147   3.051   8.397  0.0507  0.1513 -0.0715
 6646SOL    HW121379   6.097   2.973   8.422 -0.6527 -0.0255 -1.8676
 6646SOL    HW221380   6.236   3.033   8.425 -0.3245 -0.8007  0.5529
 6647SOL     OW21381   5.261   6.658   8.772  0.3575  0.4765  0.7289
 6647SOL    HW121382   5.240   6.691   8.860  1.0592  2.0334  0.3431
 6647SOL    HW221383   5.317   6.583   8.788  0.2839  0.5942  1.6188
 6648SOL     OW21384   0.751   3.766  11.984  0.4217  0.9296  0.5153
 6648SOL    HW121385   0.676   3.778  11.925 -0.3394 -2.3744  0.6323
 6648SOL    HW221386   0.825   3.753  11.925 -0.2086 -1.6132  0.1502
 6649SOL     OW21387   5.504   0.344   5.477 -0.0656  0.2634  0.2090
 6649SOL    HW121388   5.447   0.421   5.478 -0.1368  0.3012 -1.6858
 6649SOL    HW221389   5.522   0.330   5.384  2.2183 -0.3656  0.6994
 6650SOL     OW21390   0.905   6.340  11.180 -0.4385 -0.2353  0.0475
 6650SOL    HW121391   0.934   6.304  11.264 -0.9026 -0.0138  0.3048
 6650SOL    HW221392   0.986   6.356  11.132 -0.1501 -0.0196  0.5956
 6651SOL     OW21393   3.961   3.451   3.099  0.2030 -0.2451 -0.4625
 6651SOL    HW121394   4.035   3.498   3.059  2.3008 -0.8659  2.3477
 6651SOL    HW221395   3.984   3.358   3.089  2.0542 -0.4742  3.8193
 6652SOL     OW21396   7.267   1.474   6.760 -0.5804 -0.3727 -0.3306
 6652SOL    HW121397   7.179   1.460   6.794 -1.0798  0.2945 -1.3066
 6652SOL    HW221398   7.264   1.441   6.670  1.0470 -3.2548  0.5180
 6653SOL     OW21399   7.728   1.554   7.284 -0.5114 -0.0518 -0.2001
 6653SOL    HW121400   7.761   1.627   7.231  0.7549 -1.1041 -0.9212
 6653SOL    HW221401   7.692   1.492   7.221  1.7346 -1.6854  0.0170
 6654SOL     OW21402   4.614   5.282   1.793 -0.1740 -0.4395  0.6118
 6654SOL    HW121403   4.621   5.307   1.701 -2.3285 -2.1241 -0.0823
 6654SOL    HW221404   4.595   5.188   1.792 -0.7227 -0.4145  2.7529
 6655SOL     OW21405   6.100   5.639  12.011  0.3107  0.0086 -0.2045
 6655SOL    HW121406   6.121   5.665  12.101 -2.0476 -0.3552  0.5154
 6655SOL    HW221407   6.053   5.556  12.020 -1.3481  0.7286 -1.6149
 6656SOL     OW21408   4.585   2.354   0.078 -0.0489  0.1690 -0.2882
 6656SOL    HW121409   4.511   2.403   0.044  1.0558  2.1398 -0.0146
 6656SOL    HW221410   4.570   2.264   0.049 -2.8998  0.3467  0.4348
 6657SOL     OW21411   1.633   5.253   1.936 -0.1174  0.4273  0.0359
 6657SOL    HW121412   1.630   5.159   1.956 -0.7174  0.7606  1.6780
 6657SOL    HW221413   1.723   5.269   1.909  0.4748 -0.3279  1.4370
 6658SOL     OW21414   5.206   5.050   8.098  0.0074 -0.1123  0.4275
 6658SOL    HW121415   5.127   5.043   8.151  0.3219 -1.5038  0.7511
 6658SOL    HW221416   5.247   4.964   8.105  2.2194  0.9266  1.3410
 6659SOL     OW21417   0.984   7.339   2.722 -0.0911  0.0813 -0.5568
 6659SOL    HW121418   1.072   7.316   2.691 -0.3273 -0.7621 -0.6224
 6659SOL    HW221419   0.997   7.418   2.774  0.7455 -0.1712 -0.3692
 6660SOL     OW21420   1.511   3.589   0.554  0.3830  0.4103  0.0004
 6660SOL    HW121421   1.583   3.555   0.608  0.5560  0.5947 -0.1108
 6660SOL    HW221422   1.444   3.616   0.617 -0.1692 -1.0285  0.0643
 6661SOL     OW21423   5.928   1.864   4.649  0.2107 -0.7797  0.1652
 6661SOL    HW121424   5.966   1.903   4.571 -1.0596  0.3605  0.0801
 6661SOL    HW221425   5.983   1.895   4.721  0.3601 -0.4056 -0.1080
 6662SOL     OW21426   0.747   1.001   5.830 -0.0358  0.2133 -0.0145
 6662SOL    HW121427   0.716   1.064   5.766 -0.5422  0.9759  0.9544
 6662SOL    HW221428   0.669   0.978   5.881  0.3647 -0.3160  0.3746
 6663SOL     OW21429   3.087   5.472   2.766  0.2119  0.3612  0.4160
 6663SOL    HW121430   3.118   5.528   2.837  0.6778 -1.3479  1.6286
 6663SOL    HW221431   3.001   5.442   2.794  0.6403 -0.7844  0.5793
 6664SOL     OW21432   2.792   3.578   9.548 -0.7111  0.1040 -0.4437
 6664SOL    HW121433   2.834   3.493   9.560  0.4878  0.6003 -0.8568
 6664SOL    HW221434   2.829   3.634   9.616 -2.1537  0.0873  0.3844
 6665SOL     OW21435   4.421   1.287   6.143 -0.3650  0.5378 -0.2950
 6665SOL    HW121436   4.435   1.368   6.093  0.4311  0.2859 -0.4965
 6665SOL    HW221437   4.504   1.239   6.134 -1.3134 -0.9827 -1.4389
 6666SOL     OW21438   3.431   3.113   3.355  0.1369  0.2004  0.1069
 6666SOL    HW121439   3.412   3.188   3.297  0.9164  0.3475  0.0302
 6666SOL    HW221440   3.486   3.056   3.302  0.5542  0.1583  0.5835
 6667SOL     OW21441   3.785   7.198  11.135 -0.4084 -0.0771  0.1179
 6667SOL    HW121442   3.774   7.104  11.116 -1.4066 -0.0915  0.7121
 6667SOL    HW221443   3.710   7.240  11.094 -0.0536  0.4514 -0.0036
 6668SOL     OW21444   4.597   2.847   1.179  0.3323 -0.5068  0.1300
 6668SOL    HW121445   4.628   2.761   1.208  2.8139 -0.0449 -0.9149
 6668SOL    HW221446   4.659   2.909   1.217 -0.2353  0.6426 -0.7525
 6669SOL     OW21447   1.669   1.484   4.603 -0.2492 -0.5993  0.8687
 6669SOL    HW121448   1.582   1.508   4.571  0.0716 -2.1546 -1.3991
 6669SOL    HW221449   1.701   1.563   4.646 -1.4072  1.2121 -1.3446
 6670SOL     OW21450   5.514   0.850   6.564  0.7871  0.8453 -0.4810
 6670SOL    HW121451   5.427   0.864   6.526  0.6839 -1.5816 -1.3348
 6670SOL    HW221452   5.505   0.875   6.656 -0.8046  0.6592 -0.5654
 6671SOL     OW21453   2.018   2.883  12.127 -0.5269  0.6508 -0.5370
 6671SOL    HW121454   1.939   2.900  12.076 -1.0653  1.7833  0.6100
 6671SOL    HW221455   1.985   2.860  12.215  0.3723 -0.8889 -0.5551
 6672SOL     OW21456   5.402   4.366   6.289  0.2489  0.0376 -0.5475
 6672SOL    HW121457   5.364   4.293   6.240 -1.6102  0.9519 -0.5456
 6672SOL    HW221458   5.441   4.422   6.221 -0.0259 -0.0009 -0.7404
 6673SOL     OW21459   3.037   5.900   9.142 -0.2774 -0.1554 -0.2831
 6673SOL    HW121460   2.953   5.898   9.096 -0.1603  2.0655 -0.7256
 6673SOL    HW221461   3.017   5.939   9.227  0.1433 -0.5153 -0.0173
 6674SOL     OW21462   6.682   5.979   2.269  0.8586 -0.1465  0.1526
 6674SOL    HW121463   6.711   6.067   2.246 -0.6948  0.0825 -1.1535
 6674SOL    HW221464   6.658   5.939   2.186 -2.8588 -0.1164  1.0162
 6675SOL     OW21465   6.547   5.270   9.342  0.4294 -0.1625 -0.4038
 6675SOL    HW121466   6.618   5.332   9.356  0.2900  0.3569 -1.8381
 6675SOL    HW221467   6.540   5.223   9.425  1.8722  0.3500  0.0419
 6676SOL     OW21468   2.226   4.772   9.377 -0.2794  0.4109  0.2809
 6676SOL    HW121469   2.286   4.744   9.307 -0.2373 -1.0146  0.8621
 6676SOL    HW221470   2.184   4.691   9.406 -0.4268  1.0133  1.7981
 6677SOL     OW21471   3.376   6.512   1.422  0.5288  0.4832 -0.2012
 6677SOL    HW121472   3.297   6.465   1.447  1.1320  0.8867  2.8187
 6677SOL    HW221473   3.429   6.448   1.376  0.5424 -1.3236  2.1663
 6678SOL     OW21474   0.542   0.532   5.175 -0.3796  0.0059  0.0385
 6678SOL    HW121475   0.632   0.551   5.148  1.0347 -2.3411  2.5680
 6678SOL    HW221476   0.504   0.483   5.102  1.3772 -1.3118 -0.0570
 6679SOL     OW21477   5.438   2.166   2.364 -0.3953  0.5923 -0.1042
 6679SOL    HW121478   5.344   2.167   2.347 -0.3780  0.0322 -0.2561
 6679SOL    HW221479   5.465   2.258   2.358 -0.2585  0.4405 -3.9350
 6680SOL     OW21480   4.400   6.784   8.204  0.1984 -0.1691 -0.0019
 6680SOL    HW121481   4.352   6.826   8.132 -0.8283  0.0267  0.7685
 6680SOL    HW221482   4.426   6.699   8.169  0.1374  0.1207 -0.7672
 6681SOL     OW21483   4.598   5.417   4.017 -0.3110 -0.0590 -0.4244
 6681SOL    HW121484   4.515   5.436   4.060 -0.1601 -0.7277  0.1735
 6681SOL    HW221485   4.655   5.384   4.086  0.6890  1.0422 -0.6883
 6682SOL     OW21486   5.816   6.668   1.337  0.8777 -0.3598  0.1533
 6682SOL    HW121487   5.824   6.762   1.320  0.5192 -0.4609 -0.6053
 6682SOL    HW221488   5.903   6.633   1.319  1.3630 -0.0208  1.6087
 6683SOL     OW21489   2.210   4.431  11.484 -0.3478 -0.5411 -0.2544
 6683SOL    HW121490   2.303   4.411  11.477 -0.7869 -2.8028 -0.5694
 6683SOL    HW221491   2.190   4.483  11.406  0.8775  1.1735  0.5181
 6684SOL     OW21492   7.353   1.290   7.020 -0.3460  0.1448 -0.0765
 6684SOL    HW121493   7.297   1.228   6.974  0.4538 -1.1864  0.6921
 6684SOL    HW221494   7.298   1.368   7.031 -1.3861 -0.4306 -1.0176
 6685SOL     OW21495   0.426   6.426  11.773  0.0229 -0.0746  0.4447
 6685SOL    HW121496   0.494   6.482  11.810  0.7412 -0.5572 -0.1319
 6685SOL    HW221497   0.390   6.478  11.701 -0.2821  0.2125  0.7987
 6686SOL     OW21498   2.164   0.046   3.658  0.2308  0.2295 -0.0991
 6686SOL    HW121499   2.218   0.088   3.591  0.9243 -1.1832 -0.4822
 6686SOL    HW221500   2.105  -0.011   3.609 -0.5626  0.5906  0.4096
 6687SOL     OW21501   2.349   7.023   8.278 -0.4517 -0.4044  0.1092
 6687SOL    HW121502   2.330   7.034   8.371 -0.1841 -0.8090  0.2121
 6687SOL    HW221503   2.424   7.081   8.262  0.0036 -0.9328  0.3206
 6688SOL     OW21504   3.576   5.306   1.272 -0.5023 -0.3473  0.0117
 6688SOL    HW121505   3.500   5.343   1.316 -0.2961 -0.3568  0.3819
 6688SOL    HW221506   3.557   5.316   1.179 -1.2567 -0.9581  0.0865
 6689SOL     OW21507   4.963   5.097  11.014 -0.0198  0.1849 -0.4294
 6689SOL    HW121508   4.940   5.084  10.922  0.5540 -1.1251 -0.4090
 6689SOL    HW221509   4.887   5.143  11.051  0.2992  1.9126 -1.8207
 6690SOL     OW21510   5.666   2.144   0.342  0.3490  0.1539 -0.2033
 6690SOL    HW121511   5.592   2.169   0.286 -1.2046 -0.4521  1.5087
 6690SOL    HW221512   5.671   2.213   0.408  0.6257 -0.3743  0.3311
 6691SOL     OW21513   0.544   3.573   7.920 -0.4908 -0.0028  0.2527
 6691SOL    HW121514   0.482   3.522   7.972 -0.2144  0.6480  1.2363
 6691SOL    HW221515   0.564   3.649   7.974  1.0919 -0.1481 -0.0886
 6692SOL     OW21516   3.192   4.264   6.808  0.2851 -0.4142 -0.3874
 6692SOL    HW121517   3.191   4.213   6.890 -0.3041 -2.3135 -1.5235
 6692SOL    HW221518   3.134   4.338   6.826 -0.5947 -1.3070  0.6137
 6693SOL     OW21519   7.730   1.365  11.776 -0.6992 -0.0027 -0.3633
 6693SOL    HW121520   7.746   1.374  11.682 -2.3151 -0.1821 -0.6814
 6693SOL    HW221521   7.718   1.270  11.788 -1.9651  0.1616 -0.2485
 6694SOL     OW21522   5.759   6.527  10.469  0.2378  0.3605 -0.6080
 6694SOL    HW121523   5.761   6.440  10.429  1.3475  0.4674 -0.8093
 6694SOL    HW221524   5.666   6.551  10.470 -0.1139 -0.9563 -0.2472
 6695SOL     OW21525   0.654   0.837  11.332 -0.6015 -0.3520  0.1158
 6695SOL    HW121526   0.620   0.823  11.421 -1.0153 -3.2371 -0.3965
 6695SOL    HW221527   0.579   0.817  11.275  0.1442 -0.2945 -0.9103
 6696SOL     OW21528   7.125   2.485  10.186  0.5801 -0.1074  0.1861
 6696SOL    HW121529   7.217   2.489  10.159  0.7526 -1.5122  0.4589
 6696SOL    HW221530   7.130   2.458  10.278 -0.0950  0.1969  0.3103
 6697SOL     OW21531   3.348   7.308   2.534  0.3209 -0.4128 -0.3121
 6697SOL    HW121532   3.327   7.216   2.552  2.2856 -0.7938  0.2566
 6697SOL    HW221533   3.430   7.305   2.485  0.3590  1.0494 -0.3819
 6698SOL     OW21534   0.754   1.537   4.766  0.4461 -0.4022  0.5049
 6698SOL    HW121535   0.756   1.629   4.792  2.3267 -0.6386  1.3255
 6698SOL    HW221536   0.696   1.495   4.830  0.4764  0.0251  0.8157
 6699SOL     OW21537   0.588   4.670   5.677  0.5011 -0.1854  0.3476
 6699SOL    HW121538   0.513   4.647   5.622  0.9565 -1.2658  0.1286
 6699SOL    HW221539   0.572   4.759   5.705 -0.4752 -0.1292 -0.3436
 6700SOL     OW21540   5.637   6.752   5.269 -0.1841 -0.2901  0.8509
 6700SOL    HW121541   5.627   6.657   5.264 -0.7373 -0.2621  1.3197
 6700SOL    HW221542   5.727   6.768   5.239  0.1162 -1.0166  1.3223
 6701SOL     OW21543   0.355   5.666   8.356 -0.4425 -0.6197 -0.2890
 6701SOL    HW121544   0.266   5.672   8.391 -0.8573 -2.5732 -0.8998
 6701SOL    HW221545   0.404   5.732   8.404 -2.5569  1.6787 -1.0642
 6702SOL     OW21546   5.125   2.199  10.297  0.1590 -0.4149  0.4146
 6702SOL    HW121547   5.159   2.121  10.254  1.6396  1.7333 -2.7258
 6702SOL    HW221548   5.035   2.207  10.265 -0.2069 -1.1112  1.2351
 6703SOL     OW21549   7.377   5.402   5.943  0.0683  0.1834 -0.0148
 6703SOL    HW121550   7.328   5.472   5.901  0.7750  0.0592 -1.0686
 6703SOL    HW221551   7.468   5.433   5.945  0.7978 -1.5016 -2.4102
 6704SOL     OW21552   2.271   1.537   9.166 -1.1639  0.0380  0.1537
 6704SOL    HW121553   2.344   1.527   9.228 -1.8902 -1.4748  0.8040
 6704SOL    HW221554   2.292   1.478   9.094 -0.3112  1.8120 -1.1249
 6705SOL     OW21555   2.081   6.570   5.419  0.1193 -0.5472  0.2982
 6705SOL    HW121556   2.156   6.565   5.360 -0.3912  0.2710 -0.4465
 6705SOL    HW221557   2.006   6.546   5.364 -0.3972  0.4520  0.5410
 6706SOL     OW21558   2.244   4.808  11.519  0.9995 -0.6963 -0.3601
 6706SOL    HW121559   2.216   4.781  11.606  0.7062 -0.5900 -0.4217
 6706SOL    HW221560   2.323   4.860  11.535  0.8249 -0.4961 -0.1405
 6707SOL     OW21561   0.937   4.221   9.487 -0.1705  0.5695 -0.2627
 6707SOL    HW121562   0.937   4.244   9.580  1.3110  0.4393 -0.2064
 6707SOL    HW221563   0.847   4.193   9.470 -0.0040 -1.5039  1.6748
 6708SOL     OW21564   6.236   7.394   3.305  0.3419  0.0351  0.5197
 6708SOL    HW121565   6.288   7.458   3.354  2.4438 -0.6796 -0.6546
 6708SOL    HW221566   6.266   7.402   3.215 -1.7185 -0.3552 -0.2436
 6709SOL     OW21567   0.166   0.746  11.110  0.5086 -0.0328  0.1635
 6709SOL    HW121568   0.091   0.752  11.169 -0.4517  0.6180 -1.0632
 6709SOL    HW221569   0.134   0.693  11.036  0.3363  2.4356 -1.6414
 6710SOL     OW21570   3.287   0.748   5.131  0.0533  0.3351  0.7905
 6710SOL    HW121571   3.348   0.727   5.060  1.5332  0.3870  1.9737
 6710SOL    HW221572   3.314   0.690   5.203 -2.3535 -0.7864  0.8839
 6711SOL     OW21573   7.642   7.226  10.884 -0.2119  0.1793 -0.1656
 6711SOL    HW121574   7.628   7.314  10.921 -2.3559 -0.0830 -0.2111
 6711SOL    HW221575   7.664   7.172  10.960  0.4532  0.6011 -0.0404
 6712SOL     OW21576   4.041   6.333   2.960  0.3841 -0.2704 -0.3745
 6712SOL    HW121577   4.126   6.320   3.002  0.2623 -1.0329 -0.3495
 6712SOL    HW221578   4.011   6.245   2.937 -0.4791 -0.0299 -0.2293
 6713SOL     OW21579   3.700   7.826   3.547 -0.9885 -0.0319  0.0995
 6713SOL    HW121580   3.648   7.816   3.467 -0.9962 -0.6966  0.1783
 6713SOL    HW221581   3.713   7.736   3.578  1.0387  0.0353 -0.4343
 6714SOL     OW21582   3.770   0.914   1.482  0.1574 -0.0625  0.0417
 6714SOL    HW121583   3.695   0.859   1.503  0.0889  0.2594  0.6648
 6714SOL    HW221584   3.732   1.001   1.468  0.4700  0.2213  0.9048
 6715SOL     OW21585   6.874   0.390  11.932  0.4019  0.4150 -0.2543
 6715SOL    HW121586   6.882   0.370  12.025  1.4775  0.7078 -0.2737
 6715SOL    HW221587   6.780   0.406  11.919  0.2383  0.3373  0.7652
 6716SOL     OW21588   2.182   5.133  11.619 -0.6974  0.0857 -0.8713
 6716SOL    HW121589   2.175   5.091  11.705 -1.6056 -0.8549 -1.3671
 6716SOL    HW221590   2.093   5.165  11.601 -0.2754  1.2287 -1.0147
 6717SOL     OW21591   1.356   4.144   6.057  0.2490 -0.6629  0.0291
 6717SOL    HW121592   1.272   4.190   6.049  1.3665  1.4297 -0.6049
 6717SOL    HW221593   1.378   4.118   5.968  0.8497 -0.0440 -0.0161
 6718SOL     OW21594   7.852   6.152   2.247  0.0963 -0.1323 -0.6754
 6718SOL    HW121595   7.784   6.088   2.228 -0.5498  0.5589 -0.7473
 6718SOL    HW221596   7.911   6.107   2.307 -1.6855 -0.0169  1.2935
 6719SOL     OW21597   5.141   6.873   5.397 -0.1014  0.3657 -0.0564
 6719SOL    HW121598   5.115   6.930   5.324 -0.4354 -0.2200 -0.4122
 6719SOL    HW221599   5.092   6.792   5.382 -0.4474  0.3592  1.0261
 6720SOL     OW21600   0.138   6.636   5.239 -0.2500 -0.1816  0.2449
 6720SOL    HW121601   0.120   6.730   5.244  0.8766  0.0354  0.5962
 6720SOL    HW221602   0.135   6.615   5.146  0.1342  0.3367  0.1173
 6721SOL     OW21603   3.442   2.090   7.480 -0.6207 -0.4326 -0.2396
 6721SOL    HW121604   3.487   2.108   7.398  0.3591 -0.7389  0.2221
 6721SOL    HW221605   3.505   2.042   7.533 -0.9932  0.3346  0.9519
 6722SOL     OW21606   3.041   6.449   5.696  0.1189 -0.1562 -0.1718
 6722SOL    HW121607   3.117   6.394   5.678 -0.0348 -0.5116  0.2558
 6722SOL    HW221608   3.038   6.455   5.792 -1.2581 -1.3761 -0.1131
 6723SOL     OW21609   7.748   1.250   8.020  0.4381  0.3508 -0.2716
 6723SOL    HW121610   7.724   1.160   8.041 -0.0965  0.1668 -1.5901
 6723SOL    HW221611   7.666   1.298   8.022  0.7745  0.9269  0.8500
 6724SOL     OW21612   7.178   0.847  10.952  0.4472  0.0362 -0.5984
 6724SOL    HW121613   7.131   0.808  11.026 -1.4384  1.7571 -0.7792
 6724SOL    HW221614   7.250   0.896  10.993  1.0862 -1.2095 -0.1676
 6725SOL     OW21615   7.543   3.543   4.254 -0.3580 -0.1862 -0.4276
 6725SOL    HW121616   7.631   3.516   4.229 -0.1885  0.2537 -0.3141
 6725SOL    HW221617   7.494   3.545   4.172 -0.3244 -0.6546 -0.4618
 6726SOL     OW21618   5.539   5.014   9.940  0.3417 -0.1661  0.1060
 6726SOL    HW121619   5.593   5.066   9.880  1.3699 -0.7604  0.4801
 6726SOL    HW221620   5.563   5.045  10.027 -0.5607  0.1454  0.2554
 6727SOL     OW21621   4.901   1.599   0.839 -0.1278  0.0293  0.2217
 6727SOL    HW121622   4.978   1.632   0.793 -0.6499  1.5862  0.4377
 6727SOL    HW221623   4.912   1.627   0.929 -0.8913  0.1539  0.2813
 6728SOL     OW21624   1.478   1.342   8.052 -0.3998  0.7955  0.1419
 6728SOL    HW121625   1.419   1.385   8.114 -2.1101  0.8245 -1.4477
 6728SOL    HW221626   1.518   1.413   8.003 -1.1794  0.7090 -0.6499
 6729SOL     OW21627   2.060   5.315   2.693  0.4602 -0.0376 -0.0173
 6729SOL    HW121628   2.078   5.381   2.760  1.5081 -1.3949  1.0897
 6729SOL    HW221629   2.088   5.357   2.611  0.6772  1.0578  0.5927
 6730SOL     OW21630   3.198   7.802   5.916  0.2301  0.0528 -0.4273
 6730SOL    HW121631   3.249   7.815   5.996  0.4298  1.7434 -0.8050
 6730SOL    HW221632   3.147   7.882   5.906 -0.1553 -0.3294 -1.7452
 6731SOL     OW21633   6.347   1.471   6.234  0.6402  0.2596  0.4124
 6731SOL    HW121634   6.415   1.452   6.298  1.2368  0.6042 -0.1099
 6731SOL    HW221635   6.311   1.386   6.210  2.0022 -0.0825 -0.5156
 6732SOL     OW21636   3.747   3.487   6.178 -0.2862 -0.4959 -0.7585
 6732SOL    HW121637   3.702   3.468   6.096  0.0616 -0.6741 -0.9073
 6732SOL    HW221638   3.794   3.407   6.200 -1.1317 -0.7665  0.1093
 6733SOL     OW21639   7.951   3.536  11.057  0.3245  0.3896  0.1119
 6733SOL    HW121640   7.862   3.505  11.072  0.3289  0.7803  1.0045
 6733SOL    HW221641   7.987   3.549  11.144  0.9032  1.2406 -0.2335
 6734SOL     OW21642   6.563   6.588   9.165  0.1525  0.4484 -0.4234
 6734SOL    HW121643   6.568   6.657   9.230 -1.3311  0.3130 -0.1230
 6734SOL    HW221644   6.649   6.546   9.166  1.7577  3.4103 -1.9243
 6735SOL     OW21645   4.361   7.076   3.601 -0.3352  0.1432 -0.3043
 6735SOL    HW121646   4.323   7.041   3.520  1.9187 -1.2039 -0.8702
 6735SOL    HW221647   4.426   7.140   3.570 -0.3858  0.5998  0.5150
 6736SOL     OW21648   6.603   0.728   7.633 -0.2492 -0.2716  0.1861
 6736SOL    HW121649   6.657   0.716   7.711  0.2975 -1.1013 -0.3034
 6736SOL    HW221650   6.665   0.736   7.561 -0.7621 -0.6984 -0.3176
 6737SOL     OW21651   3.810   0.981   6.110  0.1460 -0.2529  0.1995
 6737SOL    HW121652   3.892   0.983   6.062 -0.3278  2.7377 -0.7222
 6737SOL    HW221653   3.746   0.948   6.047  0.3503 -1.0373  0.3969
 6738SOL     OW21654   3.567   1.469   4.822  0.2021 -0.0570  0.2912
 6738SOL    HW121655   3.595   1.381   4.848 -1.0524 -0.6384 -0.2146
 6738SOL    HW221656   3.561   1.465   4.726  0.1148  0.5719  0.2661
 6739SOL     OW21657   1.927   0.866   1.199 -0.0368 -0.0748  0.3316
 6739SOL    HW121658   1.929   0.921   1.121  1.5475 -0.0899  0.3375
 6739SOL    HW221659   1.913   0.926   1.271 -0.3656  0.0706  0.1493
 6740SOL     OW21660   0.659   5.823  10.972 -0.1988 -0.0108  0.2450
 6740SOL    HW121661   0.677   5.875  10.894  0.4448 -0.2411  0.2332
 6740SOL    HW221662   0.685   5.879  11.045  0.7563 -0.4027  0.2219
 6741SOL     OW21663   3.845   0.703   2.419  0.6686  0.1657  0.0261
 6741SOL    HW121664   3.933   0.692   2.455  0.4115 -1.2443  0.2785
 6741SOL    HW221665   3.787   0.663   2.484 -0.0055 -0.4006 -0.8989
 6742SOL     OW21666   7.433   2.738   9.631 -0.4696 -0.9454 -0.2560
 6742SOL    HW121667   7.395   2.819   9.663 -1.4784 -0.5109 -2.3920
 6742SOL    HW221668   7.508   2.765   9.578  1.8289 -1.7030  2.3270
 6743SOL     OW21669   1.907   7.062   1.439 -0.0373 -0.2075 -0.1114
 6743SOL    HW121670   1.991   7.107   1.430  1.3739 -2.4415  1.0578
 6743SOL    HW221671   1.908   6.996   1.370 -2.2183  1.5510 -2.0088
 6744SOL     OW21672   0.138   5.220   8.107  0.0090 -1.1885 -0.0439
 6744SOL    HW121673   0.207   5.215   8.173 -0.8844  1.3893  1.2080
 6744SOL    HW221674   0.070   5.274   8.147 -1.7399 -1.7178 -2.1109
 6745SOL     OW21675   0.944   6.263   5.532  0.1289 -0.1010  0.8000
 6745SOL    HW121676   0.907   6.331   5.476  1.9384  0.8730  0.6923
 6745SOL    HW221677   0.875   6.244   5.596 -0.5379  1.6218  0.6409
 6746SOL     OW21678   5.955   5.530   1.051 -0.1434  0.2679  0.8600
 6746SOL    HW121679   5.921   5.473   0.982  2.5627 -0.7654  0.2406
 6746SOL    HW221680   5.900   5.608   1.047 -0.7490 -0.1974 -1.7932
 6747SOL     OW21681   4.921   3.306   4.964 -0.1254  0.3418 -0.3648
 6747SOL    HW121682   4.982   3.365   5.008 -2.8736  2.0617  1.4367
 6747SOL    HW221683   4.875   3.362   4.901 -1.4214 -0.3027 -0.0198
 6748SOL     OW21684   6.759   3.666   8.228 -0.4844  0.3009  0.0869
 6748SOL    HW121685   6.694   3.724   8.188 -0.8526 -0.9859 -1.2614
 6748SOL    HW221686   6.821   3.647   8.158  0.2893  0.0136  0.8381
 6749SOL     OW21687   1.339   3.321   4.955  0.3399  0.2771  0.2973
 6749SOL    HW121688   1.320   3.229   4.937 -0.7783  0.3750  0.9187
 6749SOL    HW221689   1.254   3.360   4.976  0.5708  1.7946 -1.3873
 6750SOL     OW21690   2.151   7.674  12.394 -0.4998  0.2516 -0.7182
 6750SOL    HW121691   2.062   7.704  12.372 -0.7930  0.2532  0.3966
 6750SOL    HW221692   2.145   7.647  12.486  0.8950  1.2395 -0.3048
 6751SOL     OW21693   5.808   5.491   5.531 -0.5839  0.0094 -0.2452
 6751SOL    HW121694   5.790   5.417   5.474  0.2855 -0.2036 -0.2636
 6751SOL    HW221695   5.723   5.532   5.546 -0.9144 -0.3348 -1.1300
 6752SOL     OW21696   2.727   6.829   6.562  0.1376  0.8192  0.6124
 6752SOL    HW121697   2.705   6.917   6.531  0.4263  1.0862  1.1564
 6752SOL    HW221698   2.817   6.815   6.533 -0.3131  0.1864 -0.5871
 6753SOL     OW21699   3.771   1.455   5.749 -0.0699 -0.2050  0.2733
 6753SOL    HW121700   3.677   1.453   5.767 -0.2663  2.1499 -0.0627
 6753SOL    HW221701   3.786   1.543   5.714  2.2460 -0.5788  0.1716
 6754SOL     OW21702   1.274   4.842   5.138 -0.4991  0.0105  0.1477
 6754SOL    HW121703   1.259   4.749   5.150 -0.5952 -0.0481 -0.3844
 6754SOL    HW221704   1.255   4.857   5.045 -1.1559  0.6849  0.3768
 6755SOL     OW21705   3.587   7.531   4.808 -0.2026  0.3503 -0.4553
 6755SOL    HW121706   3.632   7.583   4.874 -1.1167  0.7891 -0.1653
 6755SOL    HW221707   3.566   7.449   4.852  0.9082 -0.1447 -0.8027
 6756SOL     OW21708   5.584   0.797   8.885  0.3072 -0.3746 -0.3824
 6756SOL    HW121709   5.643   0.868   8.906  0.1677  0.3240 -2.1991
 6756SOL    HW221710   5.496   0.836   8.891  0.2428 -0.3146 -1.6253
 6757SOL     OW21711   6.062   5.886   1.262  0.6147  0.4007  0.3496
 6757SOL    HW121712   6.117   5.823   1.215 -0.0771 -0.9697  1.3200
 6757SOL    HW221713   6.032   5.946   1.194  1.2809 -0.3151 -0.6157
 6758SOL     OW21714   6.553   2.990   0.053  0.8210  0.2130 -0.2139
 6758SOL    HW121715   6.590   2.903   0.066  2.3368  0.8892  0.1785
 6758SOL    HW221716   6.459   2.978   0.067  1.2056 -1.0283  1.6523
 6759SOL     OW21717   2.928   7.057   5.545  0.0794  0.2428  0.8471
 6759SOL    HW121718   2.991   6.989   5.570 -0.1386 -0.8212 -1.3230
 6759SOL    HW221719   2.979   7.137   5.539  1.1163 -0.4821 -0.2414
 6760SOL     OW21720   1.954   5.598   0.623  0.6465 -0.0210  0.4760
 6760SOL    HW121721   1.959   5.577   0.716 -1.2165  0.2097  0.6740
 6760SOL    HW221722   1.949   5.513   0.580  1.1808 -0.1201  0.5979
 6761SOL     OW21723   4.436   6.475   8.906 -0.0120  0.4822  0.3512
 6761SOL    HW121724   4.523   6.471   8.946 -0.6666  1.4300  1.9576
 6761SOL    HW221725   4.432   6.562   8.866  0.6651 -0.4745 -2.0134
 6762SOL     OW21726   2.700   4.866   4.380  0.0775 -0.4942  0.0595
 6762SOL    HW121727   2.709   4.819   4.297  0.1069 -1.7159  0.7405
 6762SOL    HW221728   2.717   4.800   4.447  0.0272  0.4733  1.0463
 6763SOL     OW21729   7.799   6.691   7.405  0.5495  0.0784 -0.3321
 6763SOL    HW121730   7.758   6.703   7.491  1.2103 -2.1642  0.3434
 6763SOL    HW221731   7.808   6.597   7.395  1.5136  0.3323 -2.4102
 6764SOL     OW21732   6.752   4.952   9.188  0.6482  0.2141 -0.4099
 6764SOL    HW121733   6.769   4.990   9.274  0.6677  1.1515 -0.8086
 6764SOL    HW221734   6.683   4.888   9.202 -0.1581  1.1738  0.1176
 6765SOL     OW21735   5.873   5.225   7.795 -0.0163  0.2438 -0.1388
 6765SOL    HW121736   5.879   5.317   7.769  1.4171  0.1482 -0.2362
 6765SOL    HW221737   5.867   5.177   7.712 -1.3340  0.2637 -0.0730
 6766SOL     OW21738   5.474   7.148   3.291 -0.1688  0.3632  0.5361
 6766SOL    HW121739   5.500   7.239   3.273 -0.4173  0.0150 -2.0044
 6766SOL    HW221740   5.432   7.119   3.210 -0.6714 -1.8362  1.5156
 6767SOL     OW21741   3.917   0.994   0.583 -0.1431 -0.4194 -0.0444
 6767SOL    HW121742   3.873   1.015   0.500 -0.1494  2.0529  0.5009
 6767SOL    HW221743   4.010   0.992   0.561 -0.1967 -0.5661 -0.2612
 6768SOL     OW21744   1.350   2.653   6.007 -0.3302 -0.3382 -0.5247
 6768SOL    HW121745   1.348   2.748   6.015  1.6319 -0.2131 -0.9337
 6768SOL    HW221746   1.318   2.620   6.091  0.3021  0.6914  0.1287
 6769SOL     OW21747   3.031   1.517  10.131 -0.7466  0.5167  0.7547
 6769SOL    HW121748   3.070   1.480  10.210  0.5427  0.4652  0.1186
 6769SOL    HW221749   3.030   1.611  10.147 -0.0187  0.5498  0.6444
 6770SOL     OW21750   6.419   2.873   1.062 -0.4435  0.0533 -0.0267
 6770SOL    HW121751   6.353   2.805   1.058  0.3613 -0.7350 -0.3154
 6770SOL    HW221752   6.409   2.921   0.979 -0.6294 -0.0898 -0.0870
 6771SOL     OW21753   6.873   1.423  10.053 -0.1141 -0.2213  0.2042
 6771SOL    HW121754   6.787   1.395  10.082 -0.7574 -1.0119 -2.2124
 6771SOL    HW221755   6.915   1.344  10.019  0.6969  0.5243 -0.6145
 6772SOL     OW21756   3.271   1.365  10.645  0.4492 -0.1530  0.4511
 6772SOL    HW121757   3.320   1.376  10.726 -0.2188  1.0680  0.7023
 6772SOL    HW221758   3.273   1.451  10.604  0.2476 -0.6067 -0.5370
 6773SOL     OW21759   5.883   6.411   4.387 -0.3870  0.1077 -0.1802
 6773SOL    HW121760   5.975   6.436   4.389 -0.0386 -0.8953 -1.9036
 6773SOL    HW221761   5.884   6.315   4.386 -1.4405  0.0825 -0.3517
 6774SOL     OW21762   1.489   1.265   6.204 -0.1358 -0.4206 -0.4400
 6774SOL    HW121763   1.440   1.191   6.167 -1.0841 -0.2835  0.4945
 6774SOL    HW221764   1.530   1.306   6.128 -1.0747 -0.8491 -1.2052
 6775SOL     OW21765   3.428   0.880   4.651 -0.3258 -0.3216 -0.2947
 6775SOL    HW121766   3.406   0.956   4.597 -2.0849 -1.1151 -0.7813
 6775SOL    HW221767   3.343   0.839   4.671  0.5743 -2.3054 -0.2548
 6776SOL     OW21768   7.130   3.734   3.929  0.3846 -0.2131  0.1296
 6776SOL    HW121769   7.136   3.812   3.985 -2.8983  1.1708 -1.1624
 6776SOL    HW221770   7.088   3.668   3.985 -1.4476  0.6653 -0.1120
 6777SOL     OW21771   4.921   2.699   0.308  0.4199 -0.2189 -0.2310
 6777SOL    HW121772   4.853   2.649   0.262  0.6046 -1.4944  0.8328
 6777SOL    HW221773   4.951   2.763   0.244 -0.8339 -0.5217 -1.1667
 6778SOL     OW21774   7.759   7.086   7.190  0.1127  0.3449  0.0147
 6778SOL    HW121775   7.776   7.086   7.285 -0.8052 -1.0173  0.2225
 6778SOL    HW221776   7.766   6.993   7.166 -4.1344 -0.0490 -0.3360
 6779SOL     OW21777   6.251   3.325   5.152 -0.1805  0.0452 -0.2569
 6779SOL    HW121778   6.164   3.339   5.187  0.3403  1.3685  0.5622
 6779SOL    HW221779   6.236   3.280   5.068 -1.6490  0.4984 -0.2693
 6780SOL     OW21780   7.785   2.642   0.010 -0.4523 -0.2309 -0.9095
 6780SOL    HW121781   7.710   2.592   0.043  0.1612  0.1493  1.2057
 6780SOL    HW221782   7.750   2.730  -0.005  0.1089  0.9705  3.3801
 6781SOL     OW21783   3.839   7.358   0.619  0.1269  0.2131 -0.1919
 6781SOL    HW121784   3.924   7.314   0.628 -0.0270  0.0676  0.6804
 6781SOL    HW221785   3.815   7.382   0.709 -0.2640  1.1908 -0.5474
 6782SOL     OW21786   7.331   5.183   2.688 -0.2862 -0.1344  0.4027
 6782SOL    HW121787   7.424   5.196   2.670 -0.2210  0.3557  1.0367
 6782SOL    HW221788   7.314   5.236   2.766 -1.0058 -0.5415  0.5370
 6783SOL     OW21789   4.882   1.652   0.497 -0.4917 -0.2477  0.2740
 6783SOL    HW121790   4.928   1.724   0.452 -1.1921  0.0230 -0.0243
 6783SOL    HW221791   4.837   1.695   0.570 -0.2567 -0.5188  0.5818
 6784SOL     OW21792   5.650   1.624   8.196  0.3068 -0.3936 -0.2896
 6784SOL    HW121793   5.578   1.677   8.229 -0.9933 -2.2311  0.0095
 6784SOL    HW221794   5.650   1.639   8.101 -0.6463 -0.5624 -0.3213
 6785SOL     OW21795   2.899   2.231  11.984 -0.1032  0.1330  0.5298
 6785SOL    HW121796   2.859   2.198  11.904  2.8245 -0.4398 -0.8404
 6785SOL    HW221797   2.864   2.320  11.993 -2.2360 -0.5869 -0.0287
 6786SOL     OW21798   0.583   1.902   8.380  0.1560 -0.0557 -0.5467
 6786SOL    HW121799   0.550   1.957   8.309  2.2352 -0.5063 -1.9761
 6786SOL    HW221800   0.576   1.813   8.346  0.1630 -0.3742  0.2742
 6787SOL     OW21801   6.331   4.896   0.504  0.1210  0.0780  0.1679
 6787SOL    HW121802   6.371   4.978   0.533  0.2102  0.3341 -0.6395
 6787SOL    HW221803   6.405   4.839   0.485  0.1068  0.2998 -0.6136
 6788SOL     OW21804   5.138   3.772   0.805 -0.1657  0.0493 -0.2800
 6788SOL    HW121805   5.069   3.706   0.814  0.4662 -0.6272 -0.2574
 6788SOL    HW221806   5.214   3.732   0.848  0.5857  0.2514 -1.3808
 6789SOL     OW21807   4.284   5.483   8.025  0.6751  0.0807  0.1736
 6789SOL    HW121808   4.330   5.465   7.943  0.6259  1.2515 -0.1395
 6789SOL    HW221809   4.236   5.564   8.008 -1.5755 -1.1268  0.4663
 6790SOL     OW21810   3.967   6.347   1.196 -0.0240 -0.4486  0.2666
 6790SOL    HW121811   3.871   6.345   1.197 -0.1729  1.6640 -1.2023
 6790SOL    HW221812   3.993   6.324   1.285 -2.0303  1.0377  1.3252
 6791SOL     OW21813   5.970   7.124   6.375 -0.6532 -0.3566 -0.2059
 6791SOL    HW121814   6.029   7.120   6.451  2.5430  1.3375 -2.3685
 6791SOL    HW221815   5.937   7.214   6.376 -0.0833 -0.1252 -1.1015
 6792SOL     OW21816   6.346   6.971   2.975 -0.4140 -0.2471 -0.1651
 6792SOL    HW121817   6.384   6.898   2.925 -0.8890 -0.8675  0.3544
 6792SOL    HW221818   6.292   7.018   2.912  0.0883 -0.1914 -0.5641
 6793SOL     OW21819   6.758   5.866   8.760 -0.2101 -0.4185  0.0511
 6793SOL    HW121820   6.835   5.900   8.714 -0.5131  0.6245  0.2765
 6793SOL    HW221821   6.715   5.944   8.794 -1.0038 -1.0436  0.5076
 6794SOL     OW21822   1.418   3.249   5.686  0.5007 -0.4875 -0.1779
 6794SOL    HW121823   1.374   3.323   5.729 -0.1660 -1.1043  0.2163
 6794SOL    HW221824   1.457   3.287   5.607 -1.7977 -0.1273 -1.2316
 6795SOL     OW21825   0.288   7.908   3.229  0.3142 -0.3504 -0.3611
 6795SOL    HW121826   0.382   7.907   3.250  0.4577 -2.2067 -0.9595
 6795SOL    HW221827   0.271   7.822   3.191 -1.4707  0.2803 -1.0597
 6796SOL     OW21828   3.207   6.107   1.958 -0.0585  0.0550  0.0130
 6796SOL    HW121829   3.193   6.017   1.988 -1.7430  0.6093  1.0789
 6796SOL    HW221830   3.233   6.098   1.867  0.7011 -1.5399  0.3471
 6797SOL     OW21831   5.118   4.204   5.622 -0.3291 -0.0040 -0.0517
 6797SOL    HW121832   5.040   4.184   5.570 -0.1104  1.1670 -0.8697
 6797SOL    HW221833   5.186   4.220   5.557 -0.0519  1.4982  0.5766
 6798SOL     OW21834   0.758   7.022  11.283  0.3719 -0.2394 -0.2668
 6798SOL    HW121835   0.720   7.109  11.298  1.9157  0.2489  1.1975
 6798SOL    HW221836   0.831   7.017  11.346 -0.9950 -3.4460  1.2904
 6799SOL     OW21837   1.798   4.012   7.056  0.1614 -0.1585 -0.4582
 6799SOL    HW121838   1.830   3.923   7.042  1.4484  0.3735 -1.1076
 6799SOL    HW221839   1.704   4.007   7.039 -0.2261 -1.8329  1.7940
 6800SOL     OW21840   4.955   0.569   6.489  0.2724  0.0102 -0.4789
 6800SOL    HW121841   5.047   0.554   6.469  0.9293  0.3984  1.9162
 6800SOL    HW221842   4.908   0.499   6.443  1.8557 -0.7442 -1.0037
 6801SOL     OW21843   1.650   7.679   1.469  0.2595  0.3182  0.0237
 6801SOL    HW121844   1.730   7.704   1.423  0.4981  1.6225  1.0799
 6801SOL    HW221845   1.614   7.607   1.417  3.2445 -1.8354  0.6626
 6802SOL     OW21846   3.367   5.151  11.625 -0.4710 -0.2194 -0.2348
 6802SOL    HW121847   3.303   5.146  11.554 -0.7882  1.4038 -0.1009
 6802SOL    HW221848   3.450   5.127  11.584 -0.8650 -0.6011 -0.8267
 6803SOL     OW21849   4.796   5.536  12.171  0.0374 -0.3355  0.3053
 6803SOL    HW121850   4.714   5.495  12.198 -1.3801  2.2456  0.3119
 6803SOL    HW221851   4.781   5.561  12.079  0.6112  0.5869  0.4474
 6804SOL     OW21852   7.944   4.124   2.300  0.6179 -0.1915  0.4621
 6804SOL    HW121853   8.020   4.067   2.312  0.4902 -0.2442  1.0334
 6804SOL    HW221854   7.868   4.068   2.318  0.5195  0.3609  1.8770
 6805SOL     OW21855   1.304   7.780  10.788  0.2390  0.3392 -0.2692
 6805SOL    HW121856   1.214   7.748  10.795  0.8605 -2.0045 -1.7765
 6805SOL    HW221857   1.324   7.813  10.875 -1.0361 -2.1516  1.0836
 6806SOL     OW21858   2.947   0.447   3.031  0.2628 -0.6901 -0.0749
 6806SOL    HW121859   2.991   0.367   3.057 -0.9827 -1.1194  0.8572
 6806SOL    HW221860   2.932   0.438   2.937  0.6576 -1.2757 -0.0835
 6807SOL     OW21861   7.280   5.325   3.513 -0.0867  0.0852 -0.0244
 6807SOL    HW121862   7.301   5.321   3.420 -0.5750 -0.0905 -0.1270
 6807SOL    HW221863   7.192   5.361   3.517  0.7141  2.1951  0.4659
 6808SOL     OW21864   2.258   6.052   0.645  0.2648 -0.5688 -0.4735
 6808SOL    HW121865   2.298   6.104   0.576 -1.3296 -0.2065 -1.1749
 6808SOL    HW221866   2.214   5.981   0.598 -0.6418 -0.4463  0.1714
 6809SOL     OW21867   1.273   0.855   1.266 -0.1726 -0.6230 -0.1219
 6809SOL    HW121868   1.354   0.884   1.309 -1.0088 -0.1209  1.1829
 6809SOL    HW221869   1.302   0.814   1.184  1.3886 -0.4168  0.3016
 6810SOL     OW21870   4.325   1.353   7.959 -0.5297 -0.7012  1.0012
 6810SOL    HW121871   4.289   1.442   7.952 -1.3302 -0.9741  1.4595
 6810SOL    HW221872   4.361   1.335   7.873 -0.5810 -0.0178  0.8274
 6811SOL     OW21873   2.461   2.332   1.707  0.0548  0.1120 -0.4666
 6811SOL    HW121874   2.378   2.334   1.660  0.1672  0.0864 -0.6669
 6811SOL    HW221875   2.449   2.393   1.779 -0.2688 -0.1807 -0.2736
 6812SOL     OW21876   1.994   2.830   4.077  0.6904 -0.3803  0.1293
 6812SOL    HW121877   1.964   2.846   4.166 -0.3379  1.0229 -0.4447
 6812SOL    HW221878   1.989   2.734   4.067 -0.1099 -0.4766  1.2469
 6813SOL     OW21879   7.831   0.663   3.819 -0.3439 -0.4993 -0.4491
 6813SOL    HW121880   7.865   0.719   3.749 -0.4903 -0.0013 -0.1306
 6813SOL    HW221881   7.850   0.711   3.899  0.1881 -1.2542 -0.1121
 6814SOL     OW21882   1.701   2.340   1.013  0.1005  0.5504 -0.2505
 6814SOL    HW121883   1.630   2.370   0.957  1.2194  1.1326 -1.4172
 6814SOL    HW221884   1.779   2.384   0.978  1.1765 -0.7440  0.4327
 6815SOL     OW21885   1.041   7.529   9.719 -0.9966  0.4225 -0.1351
 6815SOL    HW121886   1.015   7.616   9.689 -0.8311  0.8734  0.9981
 6815SOL    HW221887   0.988   7.512   9.797 -0.2593 -0.0334  0.2851
 6816SOL     OW21888   1.231   4.202   4.454  0.2584 -0.5142  0.6177
 6816SOL    HW121889   1.205   4.161   4.371  0.3621 -3.6227  2.0193
 6816SOL    HW221890   1.148   4.227   4.495  0.0705 -1.1352  0.6217
 6817SOL     OW21891   2.962   2.419  10.659 -0.8482  0.3948  0.0809
 6817SOL    HW121892   2.990   2.342  10.707 -0.4695 -0.0472 -0.8177
 6817SOL    HW221893   2.869   2.427  10.679 -1.0164 -0.6115 -0.2080
 6818SOL     OW21894   7.368   1.007   0.540  0.1202 -0.8178  0.7944
 6818SOL    HW121895   7.320   1.042   0.615  0.3249 -1.4872  1.2498
 6818SOL    HW221896   7.458   1.037   0.554 -0.2894  1.2961 -0.5835
 6819SOL     OW21897   4.882   2.562   3.647 -0.0570  0.5508  1.0766
 6819SOL    HW121898   4.876   2.479   3.693  1.0955  0.7048  1.5286
 6819SOL    HW221899   4.817   2.618   3.690 -0.4759  0.0533  1.1035
 6820SOL     OW21900   3.925   7.126   9.046 -0.6374  0.1524  0.1138
 6820SOL    HW121901   3.945   7.188   9.116 -1.2282 -0.4831  0.8621
 6820SOL    HW221902   3.944   7.040   9.084  1.1519 -0.1102 -1.2321
 6821SOL     OW21903   4.753   3.890   1.502 -0.2329 -0.3225  0.4399
 6821SOL    HW121904   4.658   3.886   1.491 -0.1608  0.0082 -0.4175
 6821SOL    HW221905   4.773   3.984   1.503  0.1626 -0.3855 -0.2488
 6822SOL     OW21906   4.914   2.540   1.202  0.0907  0.3240 -0.4325
 6822SOL    HW121907   4.827   2.561   1.235  0.5889 -0.4306  1.4748
 6822SOL    HW221908   4.933   2.608   1.138 -1.9489  0.4150 -1.0122
 6823SOL     OW21909   6.945   2.463  10.955  0.1372 -0.2616  0.0051
 6823SOL    HW121910   6.891   2.384  10.952  0.5360 -0.5623  0.5531
 6823SOL    HW221911   6.940   2.499  10.867 -2.6177  0.8433  0.5125
 6824SOL     OW21912   3.259   0.189   6.804 -0.5928 -0.3670  0.4613
 6824SOL    HW121913   3.188   0.151   6.753 -1.2026 -0.7164  1.5516
 6824SOL    HW221914   3.306   0.244   6.741 -0.8082 -1.4400 -0.6773
 6825SOL     OW21915   5.475   7.948   9.058  0.2523 -0.3585 -0.0131
 6825SOL    HW121916   5.382   7.965   9.073  0.4107  0.3207  0.2329
 6825SOL    HW221917   5.493   7.869   9.109 -0.6597 -1.7703 -1.7640
 6826SOL     OW21918   3.181   5.163   8.227 -0.2378 -0.2172  0.0036
 6826SOL    HW121919   3.118   5.119   8.283  1.5531 -1.0041  1.4936
 6826SOL    HW221920   3.198   5.100   8.156 -0.0787 -0.5911  0.3708
 6827SOL     OW21921   2.801   3.918   4.805  0.0067  0.3158 -0.0805
 6827SOL    HW121922   2.790   3.986   4.738 -0.6535 -0.0400 -0.3503
 6827SOL    HW221923   2.736   3.851   4.781  1.7472 -1.2059 -0.8071
 6828SOL     OW21924   0.790   5.515   8.132 -0.2640  0.3183 -0.0718
 6828SOL    HW121925   0.709   5.466   8.128  0.3180 -0.6373 -0.3257
 6828SOL    HW221926   0.855   5.453   8.165  0.6832  0.6547 -1.2475
 6829SOL     OW21927   4.327   6.978   3.312 -0.3329  0.2495 -0.4558
 6829SOL    HW121928   4.376   7.037   3.254 -0.7653  2.5879  1.3926
 6829SOL    HW221929   4.238   6.980   3.278 -0.9101  2.7699  0.9900
 6830SOL     OW21930   3.911   4.154   5.608  0.7055  0.5435  0.4195
 6830SOL    HW121931   3.943   4.120   5.524 -0.8840 -0.6881  0.2645
 6830SOL    HW221932   3.982   4.137   5.669  1.0752 -0.4619 -0.2613
 6831SOL     OW21933   5.794   2.330   9.185 -0.4597 -0.7352 -0.4397
 6831SOL    HW121934   5.841   2.406   9.150 -0.5035  0.4105  1.7884
 6831SOL    HW221935   5.788   2.347   9.279  0.0176 -3.8031  0.2388
 6832SOL     OW21936   7.962   7.341  10.828  0.3730 -0.0951 -0.5297
 6832SOL    HW121937   8.052   7.318  10.852  0.4101  0.2841 -0.3123
 6832SOL    HW221938   7.909   7.269  10.862  0.4989  0.1110  0.0999
 6833SOL     OW21939   7.848   1.237   6.369  0.4546 -0.2050  0.0494
 6833SOL    HW121940   7.886   1.186   6.297  0.4431 -0.1099 -0.0247
 6833SOL    HW221941   7.811   1.172   6.428  1.7967 -0.3669  0.7380
 6834SOL     OW21942   1.786   5.198   0.283 -0.0530  0.9605  0.2748
 6834SOL    HW121943   1.808   5.118   0.330 -0.5066  0.3229 -0.5735
 6834SOL    HW221944   1.870   5.232   0.252 -0.0277 -0.4178 -1.2913
 6835SOL     OW21945   6.953   1.331   9.415  0.4394  0.5651  0.0739
 6835SOL    HW121946   6.987   1.288   9.493 -0.1797 -0.5169 -0.2228
 6835SOL    HW221947   6.858   1.325   9.423  0.3437 -1.1332 -1.5339
 6836SOL     OW21948   0.912   6.443   6.418 -0.3000  0.5841 -0.1325
 6836SOL    HW121949   0.957   6.520   6.384 -0.2759 -0.2184 -2.0839
 6836SOL    HW221950   0.970   6.410   6.487  1.2449  0.6210 -1.3467
 6837SOL     OW21951   1.732   0.063   6.667  0.6050  0.2519  0.3464
 6837SOL    HW121952   1.639   0.071   6.689  0.6130 -1.2872  1.1113
 6837SOL    HW221953   1.745   0.123   6.594 -0.8889  0.8229  0.5158
 6838SOL     OW21954   0.062   1.758   9.924  0.6018  0.3170  0.3343
 6838SOL    HW121955   0.026   1.768  10.012 -1.0665 -0.4738 -0.2021
 6838SOL    HW221956   0.081   1.848   9.896 -0.8714  0.7951  0.7386
 6839SOL     OW21957   1.302   5.884   9.696 -0.3601  0.7508 -0.0093
 6839SOL    HW121958   1.270   5.835   9.620 -2.7646  2.0645  0.0692
 6839SOL    HW221959   1.333   5.966   9.659  0.5543  0.5087  0.2143
 6840SOL     OW21960   0.797   2.930  10.583  0.4166 -0.3535  0.9259
 6840SOL    HW121961   0.878   2.915  10.632  0.2865 -1.7541  0.7688
 6840SOL    HW221962   0.824   2.931  10.491  0.4586  0.7708  0.9419
 6841SOL     OW21963   1.591   5.851   6.819 -0.7419  0.4884  0.0837
 6841SOL    HW121964   1.668   5.799   6.842 -0.4988  1.3403  1.2916
 6841SOL    HW221965   1.615   5.895   6.738 -0.8208 -0.9912 -0.7686
 6842SOL     OW21966   3.592   0.349   1.282  0.4582  0.0800  0.9080
 6842SOL    HW121967   3.590   0.330   1.188 -2.2194  0.4455  0.7920
 6842SOL    HW221968   3.667   0.407   1.294  1.0349 -0.2309 -0.9476
 6843SOL     OW21969   4.061   4.236  10.388 -0.0494  0.2552  0.1133
 6843SOL    HW121970   4.128   4.190  10.337  0.1582  3.1668 -2.5894
 6843SOL    HW221971   4.104   4.317  10.416 -1.7411  1.1111  0.3620
 6844SOL     OW21972   1.374   5.949   3.549  0.0382 -0.1180  0.3156
 6844SOL    HW121973   1.455   5.991   3.578  1.2750 -1.8429 -0.4467
 6844SOL    HW221974   1.312   6.021   3.538  1.6569  1.3364  0.3298
 6845SOL     OW21975   5.860   0.536  10.492  0.1130  1.0074  0.0213
 6845SOL    HW121976   5.863   0.624  10.528  1.5483  1.5661 -1.3388
 6845SOL    HW221977   5.950   0.519  10.461 -0.3979 -0.4673 -0.7794
 6846SOL     OW21978   3.465   6.003   6.295  0.8119 -0.8651  0.0014
 6846SOL    HW121979   3.514   5.924   6.314  1.5202 -0.8726 -1.6934
 6846SOL    HW221980   3.483   6.022   6.203  1.3745  1.7644  0.5550
 6847SOL     OW21981   5.940   7.363   9.215  0.4210 -0.3396  0.5033
 6847SOL    HW121982   5.917   7.436   9.271  1.9216  1.4089 -1.0216
 6847SOL    HW221983   5.870   7.359   9.150  1.1343  0.8706 -0.3834
 6848SOL     OW21984   1.516   6.090  12.397 -0.3511 -0.1091 -0.4803
 6848SOL    HW121985   1.447   6.069  12.460  1.6255  0.8882  2.2383
 6848SOL    HW221986   1.486   6.170  12.354 -0.4241  1.0318  1.5651
 6849SOL     OW21987   4.365   2.205  10.844  0.0936 -0.4138 -0.4217
 6849SOL    HW121988   4.325   2.166  10.922  0.3900  1.1752  0.5763
 6849SOL    HW221989   4.346   2.144  10.773 -0.0897 -1.9578  0.9217
 6850SOL     OW21990   0.863   7.096   0.218 -0.2271  0.2998 -0.1816
 6850SOL    HW121991   0.888   7.029   0.154 -1.1519  1.2966 -1.6269
 6850SOL    HW221992   0.806   7.049   0.280 -0.8995 -0.2652 -1.1956
 6851SOL     OW21993   4.481   4.308   5.275 -0.3264  0.1520 -0.1389
 6851SOL    HW121994   4.456   4.285   5.185 -1.4687  0.7566  0.0138
 6851SOL    HW221995   4.501   4.224   5.316 -1.9416 -0.3574 -0.3357
 6852SOL     OW21996   1.996   7.081   9.354 -0.3459 -0.2086  0.1975
 6852SOL    HW121997   2.027   7.000   9.394 -0.9300 -0.9777 -0.8176
 6852SOL    HW221998   2.066   7.144   9.368  0.2757 -0.9945  0.7163
 6853SOL     OW21999   3.810   0.818   1.239  0.0009  0.0956 -0.2144
 6853SOL    HW122000   3.831   0.860   1.323 -1.1967 -0.4435  0.3813
 6853SOL    HW222001   3.721   0.783   1.251 -0.2221  0.0606 -1.7335
 6854SOL     OW22002   4.306   5.934   2.768  0.2599 -0.0692 -0.2741
 6854SOL    HW122003   4.307   5.863   2.704  1.2970 -0.5106  0.1989
 6854SOL    HW222004   4.219   5.931   2.808  0.6542 -1.8383  0.5393
 6855SOL     OW22005   5.843   3.982  10.660  0.5486 -0.2015 -0.4502
 6855SOL    HW122006   5.845   4.046  10.588  0.4745 -0.2587 -0.5023
 6855SOL    HW222007   5.775   3.920  10.635 -1.7684  1.5082  1.1681
 6856SOL     OW22008   6.817   3.663  12.208  0.4853  0.4880  0.8129
 6856SOL    HW122009   6.872   3.678  12.285  0.3458  3.3673  0.4821
 6856SOL    HW222010   6.841   3.733  12.148  0.3434 -1.4784 -1.6884
 6857SOL     OW22011   5.341   1.127  11.962 -0.6216  0.7091  0.1086
 6857SOL    HW122012   5.308   1.176  11.887  0.0801 -0.3700 -0.9417
 6857SOL    HW222013   5.309   1.038  11.949  0.5886  0.2129  0.3988
 6858SOL     OW22014   0.454   4.970   6.593 -0.1969  0.6713  0.0115
 6858SOL    HW122015   0.367   4.948   6.626 -0.0020  0.6676  0.5338
 6858SOL    HW222016   0.493   4.885   6.572 -0.1200  0.6327  0.2990
 6859SOL     OW22017   1.106   6.479   2.256 -0.3825 -0.1443  0.1212
 6859SOL    HW122018   1.011   6.470   2.252 -0.3424 -0.7445  0.4004
 6859SOL    HW222019   1.127   6.544   2.189 -1.2227  1.9323  1.7454
 6860SOL     OW22020   6.772   5.274   7.795  0.0392  0.6554 -0.5471
 6860SOL    HW122021   6.866   5.289   7.788 -0.1121  1.2720 -1.3968
 6860SOL    HW222022   6.764   5.181   7.816  0.8754  0.8616  0.8248
 6861SOL     OW22023   0.266   1.448   6.540 -0.1007  0.0578  0.1617
 6861SOL    HW122024   0.260   1.375   6.601  1.7615 -0.4299 -0.1678
 6861SOL    HW222025   0.289   1.407   6.456 -2.4004  0.7279 -0.8756
 6862SOL     OW22026   4.522   0.611   1.331 -0.1518 -0.1078  0.3410
 6862SOL    HW122027   4.440   0.565   1.348 -1.0141  1.0587 -0.5134
 6862SOL    HW222028   4.527   0.677   1.401  0.0230 -0.1277  0.3486
 6863SOL     OW22029   6.441   0.684   2.467  0.4710 -0.1743 -0.3830
 6863SOL    HW122030   6.434   0.592   2.441  1.2358 -0.1257 -0.7862
 6863SOL    HW222031   6.371   0.728   2.419 -0.0360 -0.5791 -0.0212
 6864SOL     OW22032   6.353   1.224   7.149 -0.0560 -0.0110 -0.1038
 6864SOL    HW122033   6.434   1.205   7.196  0.2178 -0.5859 -0.7961
 6864SOL    HW222034   6.382   1.259   7.064 -0.3570  6.2835  1.8275
 6865SOL     OW22035   7.595   3.109   2.981 -0.3082 -0.1591  0.5560
 6865SOL    HW122036   7.537   3.109   2.904 -1.4004 -0.0995  1.3616
 6865SOL    HW222037   7.683   3.104   2.944 -0.7077  1.6657 -0.7832
 6866SOL     OW22038   5.008   4.843   8.401  0.3603 -0.3024  0.0179
 6866SOL    HW122039   5.022   4.793   8.321  0.8304  0.4737 -0.3939
 6866SOL    HW222040   5.000   4.776   8.470  0.5076 -0.9560 -0.5847
 6867SOL     OW22041   6.343   2.250   1.934 -0.1113  0.7313  0.1770
 6867SOL    HW122042   6.265   2.287   1.893  1.1498  2.5323 -0.7124
 6867SOL    HW222043   6.324   2.156   1.941 -1.4585  0.7629 -2.0914
 6868SOL     OW22044   0.192   1.547   3.608  0.6474 -0.3228 -0.1303
 6868SOL    HW122045   0.261   1.580   3.550 -0.7718  2.1647 -0.5741
 6868SOL    HW222046   0.120   1.525   3.549 -0.0086  0.0603  0.5180
 6869SOL     OW22047   5.326   1.078   8.763 -0.0485  0.5656 -0.2102
 6869SOL    HW122048   5.331   1.094   8.668 -1.4142 -0.3671 -0.4745
 6869SOL    HW222049   5.280   1.155   8.798  1.1136  1.2601 -0.1847
 6870SOL     OW22050   2.572   7.182   6.612 -0.3298 -0.1935 -0.4133
 6870SOL    HW122051   2.508   7.182   6.683  2.9628 -0.6554  2.8789
 6870SOL    HW222052   2.638   7.246   6.640  0.6692  0.3329 -3.6215
 6871SOL     OW22053   3.901   0.307   2.755  0.5158  0.2827  0.1566
 6871SOL    HW122054   3.865   0.222   2.730  3.8030 -0.9353 -1.0359
 6871SOL    HW222055   3.944   0.291   2.840  2.6839  0.1589 -0.8922
 6872SOL     OW22056   6.748   4.601   8.179  0.8161  0.1448  0.0495
 6872SOL    HW122057   6.806   4.525   8.166  0.7224 -0.0144  0.5124
 6872SOL    HW222058   6.671   4.582   8.125  0.6965 -0.2018  0.3345
 6873SOL     OW22059   4.742   5.612   3.305 -0.2471  0.0977  0.0614
 6873SOL    HW122060   4.772   5.523   3.324 -2.0083 -0.3475  0.9211
 6873SOL    HW222061   4.796   5.640   3.232  1.4412 -1.0720  0.7880
 6874SOL     OW22062   1.807   1.614   6.551  0.0501 -0.1807  0.5341
 6874SOL    HW122063   1.742   1.635   6.484  0.9752  0.2919 -0.2536
 6874SOL    HW222064   1.778   1.531   6.588  0.6889 -1.6715 -2.0634
 6875SOL     OW22065   1.566   6.119   3.647  0.1262 -0.5078 -0.8185
 6875SOL    HW122066   1.562   6.203   3.601 -0.2883 -0.1077 -0.0649
 6875SOL    HW222067   1.603   6.140   3.732 -0.3786 -1.0229 -0.4688
 6876SOL     OW22068   4.033   4.469   9.490 -0.2709 -0.4625  0.0252
 6876SOL    HW122069   4.000   4.381   9.510  1.0658 -0.9897  0.0084
 6876SOL    HW222070   3.990   4.526   9.555 -0.4398 -1.2655  0.6359
 6877SOL     OW22071   6.857   6.215   8.423  0.3494  0.1756 -0.3009
 6877SOL    HW122072   6.946   6.182   8.423  1.5841  3.1495  0.7946
 6877SOL    HW222073   6.817   6.178   8.502  0.9559 -0.2894 -0.2087
 6878SOL     OW22074   6.461   4.235   3.466  0.3331  0.1789  0.3539
 6878SOL    HW122075   6.554   4.255   3.469  1.0556 -2.7491  1.1884
 6878SOL    HW222076   6.454   4.165   3.401 -1.3074  0.3326  0.3250
 6879SOL     OW22077   6.086   4.404   1.780 -0.6535  0.2354  0.2180
 6879SOL    HW122078   6.100   4.452   1.698 -0.8581 -0.5146 -0.2673
 6879SOL    HW222079   6.129   4.457   1.846  1.4325 -0.2120 -0.6999
 6880SOL     OW22080   0.817   4.370   3.414  0.5375  0.2625  0.0464
 6880SOL    HW122081   0.854   4.375   3.326 -0.5284  0.1958 -0.4238
 6880SOL    HW222082   0.817   4.460   3.446  1.6279  0.1897  0.2939
 6881SOL     OW22083   3.594   7.833   5.086 -0.4565  0.0101  0.2597
 6881SOL    HW122084   3.577   7.889   5.162  1.1937 -2.2063  2.4603
 6881SOL    HW222085   3.508   7.805   5.056 -1.1588  0.9815  1.3056
 6882SOL     OW22086   3.464   3.514   1.699  0.4788 -0.1804 -0.5053
 6882SOL    HW122087   3.471   3.478   1.787  0.4737  1.4708  0.2041
 6882SOL    HW222088   3.374   3.496   1.673 -0.1817  1.1594  0.7054
 6883SOL     OW22089   5.465   6.074   5.599  0.0475 -0.5813 -0.0552
 6883SOL    HW122090   5.414   6.155   5.604  0.1798 -0.4628 -0.5844
 6883SOL    HW222091   5.418   6.020   5.536  0.1189 -0.8031  0.0799
 6884SOL     OW22092   5.142   5.440  10.251  0.0041  0.0023 -0.1432
 6884SOL    HW122093   5.090   5.365  10.283  0.8648 -0.2402  0.7384
 6884SOL    HW222094   5.099   5.465  10.169  0.6739 -2.5249 -1.3747
 6885SOL     OW22095   7.104   1.180   7.737 -0.4809  0.0985 -0.0274
 6885SOL    HW122096   7.072   1.137   7.817 -1.6511  2.1670  0.7098
 6885SOL    HW222097   7.077   1.122   7.666 -0.7725 -1.0531  0.9769
 6886SOL     OW22098   5.205   0.265   2.515  0.3739 -0.0163  0.4185
 6886SOL    HW122099   5.300   0.252   2.523  0.5001  1.3249  1.3703
 6886SOL    HW222100   5.196   0.348   2.469 -0.3431 -0.0590  0.4816
 6887SOL     OW22101   1.171   7.008   5.212  0.1214  0.6708 -0.3986
 6887SOL    HW122102   1.076   7.005   5.223 -0.2588 -1.0025 -3.2580
 6887SOL    HW222103   1.197   7.092   5.249 -2.2272  0.5968  1.7029
 6888SOL     OW22104   3.514   6.887  11.893  0.0241  0.5469  0.2357
 6888SOL    HW122105   3.496   6.796  11.917 -1.2151  0.3006 -1.4080
 6888SOL    HW222106   3.476   6.938  11.964 -1.8235 -0.1848 -0.1427
 6889SOL     OW22107   2.359   3.931   7.554 -0.8509 -0.3545  0.4874
 6889SOL    HW122108   2.396   4.014   7.522 -1.9376 -0.7076 -1.8819
 6889SOL    HW222109   2.411   3.863   7.509 -0.5358 -0.9567  1.7322
 6890SOL     OW22110   0.689   2.265   1.144 -0.1950 -0.3701  0.5356
 6890SOL    HW122111   0.629   2.202   1.183 -0.5503 -1.2574 -1.3415
 6890SOL    HW222112   0.706   2.329   1.214 -0.1176 -2.3076  2.3892
 6891SOL     OW22113   4.983   3.319   3.217  0.4444  0.0802 -0.7983
 6891SOL    HW122114   5.013   3.410   3.211  1.4200 -0.2651 -1.3702
 6891SOL    HW222115   5.052   3.273   3.264 -0.3873 -0.2329  0.1577
 6892SOL     OW22116   3.088   2.413   7.548 -0.1659  0.1734  0.2900
 6892SOL    HW122117   3.015   2.475   7.548  0.8855  1.4930 -0.9681
 6892SOL    HW222118   3.154   2.453   7.604  0.6697  0.4275 -0.8329
 6893SOL     OW22119   4.364   4.799   6.332  0.4046 -0.0654  0.1397
 6893SOL    HW122120   4.425   4.872   6.321  0.0623  0.2042 -0.0152
 6893SOL    HW222121   4.382   4.741   6.258  0.0055  0.3600 -0.3009
 6894SOL     OW22122   1.179   1.168   5.380 -0.2458 -0.0172 -0.4231
 6894SOL    HW122123   1.090   1.172   5.416 -1.0405 -1.4913 -2.0548
 6894SOL    HW222124   1.173   1.103   5.310  1.3246  2.2757 -2.8308
 6895SOL     OW22125   0.112   0.951   3.349 -0.2301  0.1141  0.2198
 6895SOL    HW122126   0.071   0.896   3.415 -0.9113  1.9060  1.3621
 6895SOL    HW222127   0.112   1.039   3.387  1.9628  0.7201 -0.9882
 6896SOL     OW22128   2.588   5.621  11.687 -0.2226  0.0594  0.2529
 6896SOL    HW122129   2.580   5.625  11.783 -0.3382 -0.2215  0.2550
 6896SOL    HW222130   2.514   5.672  11.655  0.4070  1.0577  0.3199
 6897SOL     OW22131   1.249   3.028   8.104  0.0005 -0.0869 -0.2090
 6897SOL    HW122132   1.287   3.115   8.096 -1.3727  0.6064  0.3628
 6897SOL    HW222133   1.247   2.994   8.015  0.2510  0.6042 -0.4834
 6898SOL     OW22134   6.841   7.047   0.703  0.0986  0.1095 -0.4197
 6898SOL    HW122135   6.866   7.122   0.757  0.4694  0.4772 -1.0806
 6898SOL    HW222136   6.819   7.085   0.618  1.0474 -0.5986 -1.0018
 6899SOL     OW22137   7.355   5.977  10.763 -0.4299  0.1834 -0.0662
 6899SOL    HW122138   7.347   6.070  10.782 -1.1315  0.0605  0.2443
 6899SOL    HW222139   7.278   5.937  10.803  0.9313 -0.8293  1.6816
 6900SOL     OW22140   2.744   4.080   8.860  0.0068  0.0050  0.4187
 6900SOL    HW122141   2.700   4.065   8.943  1.1480 -2.3362  0.6748
 6900SOL    HW222142   2.826   4.125   8.883 -1.2890  2.7058  0.1166
 6901SOL     OW22143   3.973   3.582  10.555 -0.4886 -0.3108 -0.1913
 6901SOL    HW122144   3.907   3.536  10.502  0.1340 -0.7502 -0.6018
 6901SOL    HW222145   4.033   3.513  10.583 -0.5888 -0.0147  0.7663
 6902SOL     OW22146   6.425   3.008   5.901 -0.3712  0.4973 -0.2740
 6902SOL    HW122147   6.496   2.957   5.938 -1.7552 -1.4164 -0.0861
 6902SOL    HW222148   6.382   2.949   5.838 -2.0184  1.4201 -0.0939
 6903SOL     OW22149   5.051   2.756   6.239 -0.2406 -0.0903  0.2816
 6903SOL    HW122150   5.094   2.712   6.166  1.0623  0.0285  0.9424
 6903SOL    HW222151   5.011   2.833   6.200  0.2335 -0.1556 -0.3564
 6904SOL     OW22152   4.524   1.466   8.930 -0.0462 -0.0761  0.8752
 6904SOL    HW122153   4.570   1.550   8.933  0.1992 -0.0275 -1.6279
 6904SOL    HW222154   4.437   1.485   8.966 -1.5111  2.4881 -3.2125
 6905SOL     OW22155   2.621   2.254   4.309 -0.3129  0.2998 -0.2775
 6905SOL    HW122156   2.596   2.334   4.262  1.1750  0.5517 -0.6775
 6905SOL    HW222157   2.653   2.285   4.394  0.4205  0.1429 -0.4961
 6906SOL     OW22158   1.502   5.581  11.578 -0.0234 -0.1047 -0.3764
 6906SOL    HW122159   1.435   5.649  11.582 -0.8543 -0.9419  0.5363
 6906SOL    HW222160   1.529   5.580  11.486 -0.6878  0.8004 -0.5967
 6907SOL     OW22161   0.239   6.427   3.427  0.4964  0.2053  0.3300
 6907SOL    HW122162   0.260   6.385   3.344 -2.0081 -0.9205  0.1715
 6907SOL    HW222163   0.211   6.516   3.403 -2.0128 -0.6806 -0.3544
 6908SOL     OW22164   0.966   6.198   1.806  0.1089 -0.0530 -0.1124
 6908SOL    HW122165   0.940   6.255   1.733  1.9014  0.7171 -0.2032
 6908SOL    HW222166   0.948   6.110   1.775 -0.6886  0.3402 -0.8303
 6909SOL     OW22167   2.130   1.646  10.361 -0.1630 -0.9460  0.3426
 6909SOL    HW122168   2.064   1.625  10.427 -0.0006 -2.2272  0.1198
 6909SOL    HW222169   2.122   1.576  10.296  0.9275 -0.7218 -0.0569
 6910SOL     OW22170   6.664   5.063   1.772  0.3704  0.1154 -0.2819
 6910SOL    HW122171   6.734   5.128   1.775  1.2041 -0.7913  0.8275
 6910SOL    HW222172   6.605   5.095   1.704  1.4407  1.3260 -0.6896
 6911SOL     OW22173   2.801   6.803   9.725  0.0879  0.3635 -0.0278
 6911SOL    HW122174   2.726   6.848   9.763 -0.1246  0.6575 -0.7835
 6911SOL    HW222175   2.840   6.866   9.665  0.6140  0.0211 -0.0560
 6912SOL     OW22176   4.455   0.442   5.516 -0.6730  0.0157  0.1518
 6912SOL    HW122177   4.474   0.373   5.453  1.7474  0.4892  0.3027
 6912SOL    HW222178   4.361   0.430   5.536 -0.6542 -2.3559 -0.8195
 6913SOL     OW22179   4.951   4.147  10.715 -0.4264  0.9218  0.3698
 6913SOL    HW122180   5.030   4.092  10.711 -0.6981  0.4250  1.6088
 6913SOL    HW222181   4.885   4.091  10.754 -1.2072  1.5810  0.0123
 6914SOL     OW22182   4.930   1.393   9.648 -0.0691  0.5195  0.1807
 6914SOL    HW122183   4.962   1.308   9.619 -1.7886  0.1182 -0.6797
 6914SOL    HW222184   5.009   1.444   9.667  0.9916 -1.1580  0.4360
 6915SOL     OW22185   2.322   0.351   0.926 -0.2687 -0.4747 -0.0962
 6915SOL    HW122186   2.405   0.375   0.885 -0.0667 -0.4407  0.3259
 6915SOL    HW222187   2.330   0.257   0.943 -0.2282 -0.4327  0.1311
 6916SOL     OW22188   3.544   2.748   5.621 -0.2428 -0.1773 -0.0049
 6916SOL    HW122189   3.566   2.782   5.707 -1.2173 -0.0757  0.2258
 6916SOL    HW222190   3.587   2.662   5.617 -1.5901 -0.9739  1.3071
 6917SOL     OW22191   2.692   2.066  11.372 -0.7547 -0.0759  0.1572
 6917SOL    HW122192   2.782   2.057  11.403  0.1671  2.2860 -1.4659
 6917SOL    HW222193   2.638   2.051  11.449  1.1174  0.0090  1.5646
 6918SOL     OW22194   6.556   3.627   2.159  0.6820  0.4316  0.2700
 6918SOL    HW122195   6.504   3.547   2.150  1.1142  0.3244 -1.9217
 6918SOL    HW222196   6.643   3.596   2.183  0.7415  0.2747 -0.1410
 6919SOL     OW22197   6.305   0.481   5.965 -0.0935 -0.1834 -0.0820
 6919SOL    HW122198   6.232   0.543   5.961 -0.1963 -0.2181  0.8755
 6919SOL    HW222199   6.351   0.505   6.046  0.6514 -0.4977 -0.4045
 6920SOL     OW22200   1.167   7.728   2.946 -0.0439  0.4593  0.6056
 6920SOL    HW122201   1.093   7.677   2.915  1.2007 -0.8964 -0.2811
 6920SOL    HW222202   1.162   7.723   3.041 -0.4726 -0.5632  0.5403
 6921SOL     OW22203   5.272   2.273   9.796 -0.1084 -0.7459  0.1891
 6921SOL    HW122204   5.197   2.294   9.852  0.3478 -0.2885  0.6321
 6921SOL    HW222205   5.286   2.179   9.809  0.1034 -0.6100  0.9823
 6922SOL     OW22206   3.097   7.346   7.878  0.0438 -0.5974 -0.2305
 6922SOL    HW122207   3.152   7.390   7.814  2.4232 -5.1658 -1.7791
 6922SOL    HW222208   3.012   7.336   7.835  0.7535 -1.0835 -1.5733
 6923SOL     OW22209   5.591   6.750   0.990  0.5579 -0.2698 -0.0593
 6923SOL    HW122210   5.515   6.769   0.934  0.7265  0.4056 -0.0691
 6923SOL    HW222211   5.554   6.705   1.066  0.3541 -1.4020 -0.8005
 6924SOL     OW22212   7.433   4.210   9.040 -0.5697  0.2173  0.0666
 6924SOL    HW122213   7.353   4.215   8.988 -0.9083 -0.8839  0.4512
 6924SOL    HW222214   7.465   4.301   9.044 -2.3754  0.8609  0.8268
 6925SOL     OW22215   2.618   5.235   9.826 -0.2329 -1.2081  0.9504
 6925SOL    HW122216   2.625   5.140   9.821 -0.6900 -1.2111  0.3144
 6925SOL    HW222217   2.590   5.262   9.739 -1.1576 -0.5818  1.4296
 6926SOL     OW22218   2.306   7.062   9.854  0.0540  0.3287  0.2065
 6926SOL    HW122219   2.256   6.981   9.856  0.6433 -0.0362  1.7933
 6926SOL    HW222220   2.359   7.060   9.934 -0.1589  2.4309  0.4684
 6927SOL     OW22221   2.195   0.945  11.650  0.4431  0.4339  0.1636
 6927SOL    HW122222   2.259   0.983  11.709 -0.4807  1.2481  0.6716
 6927SOL    HW222223   2.216   0.982  11.564  2.4981 -1.6172 -0.3252
 6928SOL     OW22224   7.787   6.309   1.711 -0.1354  0.3118  0.1064
 6928SOL    HW122225   7.759   6.283   1.623 -0.0617  1.4190 -0.2591
 6928SOL    HW222226   7.715   6.281   1.768 -0.4913  0.1873 -0.3946
 6929SOL     OW22227   2.155   4.042   3.281 -0.2617  0.4590  0.2722
 6929SOL    HW122228   2.123   4.065   3.193  0.7972 -0.2349 -0.3209
 6929SOL    HW222229   2.251   4.042   3.272 -0.1199 -2.3512  0.6386
 6930SOL     OW22230   2.790   1.230   5.246 -0.4290  0.2370  0.2817
 6930SOL    HW122231   2.828   1.290   5.310  0.0128  0.8122 -0.4893
 6930SOL    HW222232   2.865   1.190   5.203 -0.6937  0.6348 -0.5760
 6931SOL     OW22233   4.253   1.780  10.991 -0.0243  0.1808  0.5636
 6931SOL    HW122234   4.348   1.790  10.985  0.0586 -1.0058 -0.5809
 6931SOL    HW222235   4.228   1.829  11.070  1.5161  0.5596  0.8398
 6932SOL     OW22236   1.081   2.228   2.853 -0.6229  0.0563 -0.1976
 6932SOL    HW122237   1.016   2.160   2.837  0.6958 -1.5191  0.8154
 6932SOL    HW222238   1.054   2.269   2.935 -1.6557  1.0943 -1.0262
 6933SOL     OW22239   7.536   0.663   3.842 -0.3741  0.1355  0.5704
 6933SOL    HW122240   7.494   0.584   3.807 -2.1247  2.0505 -2.0344
 6933SOL    HW222241   7.609   0.679   3.783 -2.1567  2.2835 -1.2813
 6934SOL     OW22242   0.233   7.370   9.177 -0.4647  0.2516  0.5497
 6934SOL    HW122243   0.147   7.330   9.191  0.0133 -0.9704  0.1834
 6934SOL    HW222244   0.214   7.457   9.144 -1.5899 -0.5345 -0.9930
 6935SOL     OW22245   5.389   0.099   1.381 -0.2410  0.3456  0.2222
 6935SOL    HW122246   5.358   0.140   1.300  0.5618  0.9507  0.2046
 6935SOL    HW222247   5.320   0.037   1.404 -1.7818  2.0823  0.5419
 6936SOL     OW22248   2.054   5.355  10.773  0.2264  0.1852  0.5688
 6936SOL    HW122249   2.016   5.380  10.689 -0.3077  0.4408  0.8793
 6936SOL    HW222250   1.981   5.361  10.835  0.4983 -0.4601  0.9658
 6937SOL     OW22251   2.445   1.250   5.439 -0.1391 -0.2245  0.3462
 6937SOL    HW122252   2.521   1.239   5.382 -0.8343 -0.8595 -0.5066
 6937SOL    HW222253   2.476   1.228   5.526  1.1081  1.3693  0.3489
 6938SOL     OW22254   2.609   2.708   8.600 -0.4024 -0.0188  0.1130
 6938SOL    HW122255   2.581   2.800   8.593  0.0528  0.2047  1.0429
 6938SOL    HW222256   2.678   2.699   8.535 -0.2329  0.3871  0.2336
 6939SOL     OW22257   5.680   3.549  11.504 -0.1233  0.3821  0.6936
 6939SOL    HW122258   5.686   3.638  11.468  1.8096 -1.0210 -2.8311
 6939SOL    HW222259   5.589   3.542  11.533 -0.8800  2.8436 -0.7864
 6940SOL     OW22260   2.207   3.636   8.538 -0.0679 -0.2212  0.1604
 6940SOL    HW122261   2.173   3.563   8.486 -0.8630  1.0505 -1.2112
 6940SOL    HW222262   2.136   3.657   8.598 -0.4272  0.3123 -0.4331
 6941SOL     OW22263   4.181   5.805   5.362  0.3026 -0.1857 -0.1226
 6941SOL    HW122264   4.213   5.735   5.420  1.0378 -0.7165 -1.1342
 6941SOL    HW222265   4.239   5.802   5.286 -1.2494 -0.2136 -1.3818
 6942SOL     OW22266   0.582   2.789   6.522  0.5643 -0.1384  0.0856
 6942SOL    HW122267   0.671   2.810   6.492  0.4494  0.8762  0.4160
 6942SOL    HW222268   0.525   2.845   6.469  0.2146  0.1339  0.7339
 6943SOL     OW22269   6.513   7.226   6.787 -0.3837 -0.1189  0.0218
 6943SOL    HW122270   6.496   7.137   6.756 -0.5747  0.2022 -0.8422
 6943SOL    HW222271   6.435   7.275   6.761 -0.2796  0.3010  0.4874
 6944SOL     OW22272   6.066   5.810  11.784 -0.2298  0.1609  0.2498
 6944SOL    HW122273   6.143   5.863  11.802 -0.7603  0.2525  2.5651
 6944SOL    HW222274   6.083   5.726  11.826 -0.3475 -0.7560 -1.4442
 6945SOL     OW22275   3.103   2.960   1.851 -0.1076  0.1430  0.4664
 6945SOL    HW122276   3.066   3.003   1.774  0.5328  0.5113  0.3649
 6945SOL    HW222277   3.097   2.866   1.832  0.8073  0.2483 -0.3859
 6946SOL     OW22278   7.706   2.987   8.358  0.1217 -0.3248  0.2331
 6946SOL    HW122279   7.631   2.953   8.308  0.3023  0.9504 -0.9590
 6946SOL    HW222280   7.782   2.947   8.316  0.1432 -1.9073  1.6741
 6947SOL     OW22281   7.515   4.435   0.336 -0.4922 -0.3699  0.0643
 6947SOL    HW122282   7.569   4.452   0.259 -1.9908  0.3477 -0.8606
 6947SOL    HW222283   7.450   4.372   0.307 -1.7312  0.7072  0.4214
 6948SOL     OW22284   6.998   1.504   5.091  0.5265  0.0815 -0.4450
 6948SOL    HW122285   6.982   1.559   5.167 -1.4828  2.4036 -2.3509
 6948SOL    HW222286   7.001   1.414   5.125  3.0835  1.1841  2.6902
 6949SOL     OW22287   0.090   6.814   2.892  0.6078 -0.1127 -0.0956
 6949SOL    HW122288   0.105   6.729   2.852 -0.5121 -0.4969  0.2688
 6949SOL    HW222289   0.033   6.796   2.967 -2.5182  1.3530 -1.9661
 6950SOL     OW22290   1.584   6.248   0.988  0.1198 -0.2546  0.6007
 6950SOL    HW122291   1.523   6.272   0.919 -0.8726 -0.8736  1.2290
 6950SOL    HW222292   1.641   6.182   0.948  0.0931  0.0004  0.1367
 6951SOL     OW22293   4.804   4.609  11.428  0.7732  0.0037  0.3822
 6951SOL    HW122294   4.841   4.522  11.415 -0.2204 -0.4174  0.2874
 6951SOL    HW222295   4.734   4.616  11.362  0.7994  0.8454  0.4284
 6952SOL     OW22296   4.872   2.987   7.302 -0.1846 -1.0792  0.3030
 6952SOL    HW122297   4.825   2.915   7.260 -0.7285 -1.0864  0.9030
 6952SOL    HW222298   4.931   2.943   7.364 -1.0860 -1.0098  1.2508
 6953SOL     OW22299   2.518   5.815   3.844  0.1647 -0.4464  0.1397
 6953SOL    HW122300   2.534   5.765   3.764 -1.3365  0.4900 -0.7919
 6953SOL    HW222301   2.599   5.805   3.895  1.4386 -0.4732 -1.7973
 6954SOL     OW22302   2.784   7.704   8.059 -0.4515 -0.0117  0.3702
 6954SOL    HW122303   2.693   7.678   8.073 -0.6728 -1.1565 -2.4681
 6954SOL    HW222304   2.834   7.622   8.063  0.2418  0.4037  0.4467
 6955SOL     OW22305   0.474   2.339   2.486 -0.1749  0.5720 -0.4280
 6955SOL    HW122306   0.481   2.316   2.393 -0.6245  0.9281 -0.5493
 6955SOL    HW222307   0.497   2.432   2.490  0.8173  0.3281 -0.0435
 6956SOL     OW22308   5.055   7.652   9.730 -0.2924  0.3869  0.9794
 6956SOL    HW122309   5.067   7.745   9.750 -0.3826 -0.2461  4.8322
 6956SOL    HW222310   5.142   7.622   9.705 -0.2318  1.4545 -0.1953
 6957SOL     OW22311   6.865   0.111  12.406 -0.1523  0.1069 -0.1060
 6957SOL    HW122312   6.955   0.105  12.373  0.5586 -0.2041  1.7591
 6957SOL    HW222313   6.811   0.076  12.336  1.0961  1.0926 -1.6130
 6958SOL     OW22314   6.475   0.776   7.107 -0.3237  0.4647  0.1711
 6958SOL    HW122315   6.457   0.837   7.178  0.5021 -1.1950  1.8820
 6958SOL    HW222316   6.394   0.773   7.056 -0.9479  1.6547  1.0598
 6959SOL     OW22317   6.433   1.640   4.881  0.4224 -0.6473  0.2591
 6959SOL    HW122318   6.389   1.712   4.927  0.2609  0.2769 -1.2859
 6959SOL    HW222319   6.375   1.564   4.894 -1.0298  0.2547 -0.7066
 6960SOL     OW22320   0.649   7.868   6.488  0.0078  0.1971  0.0567
 6960SOL    HW122321   0.652   7.933   6.418 -2.0121  0.4131  0.1015
 6960SOL    HW222322   0.661   7.919   6.569 -0.2981  0.3422  0.0128
 6961SOL     OW22323   6.551   5.755   1.519  0.3600 -0.3159 -0.0639
 6961SOL    HW122324   6.484   5.779   1.456  0.7100 -0.3818 -0.4627
 6961SOL    HW222325   6.583   5.670   1.489 -1.3708 -1.7020  1.7172
 6962SOL     OW22326   4.152   2.876   6.451  0.2256  0.4481  0.3089
 6962SOL    HW122327   4.058   2.864   6.462  0.1205  1.7725  1.1162
 6962SOL    HW222328   4.192   2.816   6.514 -0.0690 -0.2833 -0.1994
 6963SOL     OW22329   0.184   4.108   5.898 -0.2681 -0.3130 -0.1032
 6963SOL    HW122330   0.157   4.074   5.983 -2.1619  1.1107 -0.0975
 6963SOL    HW222331   0.108   4.155   5.865  0.2577 -1.2180 -2.8184
 6964SOL     OW22332   0.056   0.894   6.638  0.4503 -0.1530 -0.0182
 6964SOL    HW122333  -0.001   0.818   6.633 -3.5643  2.5562  0.2480
 6964SOL    HW222334   0.126   0.876   6.575  0.3249 -4.3906  0.8041
 6965SOL     OW22335   5.763   5.569  12.373 -0.1659  0.2870 -0.2121
 6965SOL    HW122336   5.674   5.536  12.386 -0.0016 -0.5724 -1.1059
 6965SOL    HW222337   5.791   5.597  12.459 -1.0410 -0.1263  0.2230
 6966SOL     OW22338   2.418   7.031  10.699  0.0507 -0.7041  0.1799
 6966SOL    HW122339   2.412   6.990  10.785 -1.7358 -1.5597 -0.3025
 6966SOL    HW222340   2.504   7.006  10.665  0.2059 -1.5105  1.1480
 6967SOL     OW22341   5.884   3.323  12.079  0.2638  0.8526 -0.1275
 6967SOL    HW122342   5.902   3.387  12.148 -0.4289  1.1557 -0.2226
 6967SOL    HW222343   5.799   3.285  12.102  1.0446 -0.6693  0.3908
 6968SOL     OW22344   6.676   5.445   0.040  0.4577  0.0772  0.6243
 6968SOL    HW122345   6.749   5.461  -0.020 -0.4945  0.2620 -0.5101
 6968SOL    HW222346   6.665   5.350   0.040  0.0207  0.1214 -0.0450
 6969SOL     OW22347   0.300   0.467   8.899  0.1233  0.0362 -0.6928
 6969SOL    HW122348   0.302   0.547   8.951  2.6591 -1.1956  1.3180
 6969SOL    HW222349   0.306   0.497   8.808  0.4416  2.1127 -0.0409
 6970SOL     OW22350   4.729   3.262   8.182 -0.5885  0.1200 -1.0114
 6970SOL    HW122351   4.701   3.223   8.099 -2.9230 -2.6635  0.8567
 6970SOL    HW222352   4.785   3.196   8.222  0.7539  1.5454 -0.4256
 6971SOL     OW22353   2.016   1.309   6.025  0.1766 -0.5186 -0.3379
 6971SOL    HW122354   1.975   1.375   6.081 -0.8336 -0.5994 -0.9534
 6971SOL    HW222355   1.947   1.244   6.010  0.6507 -0.8718 -1.0760
 6972SOL     OW22356   1.382   5.815   6.566  0.5503 -0.4418 -0.3100
 6972SOL    HW122357   1.470   5.777   6.565  0.2481 -1.1410 -0.8359
 6972SOL    HW222358   1.374   5.853   6.653  1.7788  0.6009 -0.6262
 6973SOL     OW22359   5.107   3.351   5.778 -0.0460 -0.1309  0.3768
 6973SOL    HW122360   5.021   3.353   5.738  0.1237  2.1394 -0.0515
 6973SOL    HW222361   5.168   3.340   5.705  0.0826 -0.0134  0.4632
 6974SOL     OW22362   2.057   6.299   8.639 -0.0565 -0.0303 -0.3811
 6974SOL    HW122363   2.111   6.264   8.711 -0.9450  0.8983  0.7788
 6974SOL    HW222364   1.970   6.263   8.654  0.1477 -1.4007 -2.1622
 6975SOL     OW22365   0.604   7.079   0.829 -0.2265  0.3257 -0.7533
 6975SOL    HW122366   0.609   7.117   0.916 -3.2230  0.4519 -0.5439
 6975SOL    HW222367   0.592   7.154   0.770  0.0114  0.1196 -1.0698
 6976SOL     OW22368   1.419   1.127   5.150 -0.4350  0.5772 -0.5559
 6976SOL    HW122369   1.485   1.058   5.149  0.5577  1.5017 -1.0152
 6976SOL    HW222370   1.335   1.081   5.151  0.1932 -0.6418  1.2250
 6977SOL     OW22371   6.888   7.636  11.976  0.0559 -0.4031 -0.0421
 6977SOL    HW122372   6.947   7.563  11.959 -0.7753 -0.9142 -0.8547
 6977SOL    HW222373   6.868   7.672  11.889  0.7071  1.0180  0.3580
 6978SOL     OW22374   0.780   4.661   2.208  0.7985  0.5247 -0.0793
 6978SOL    HW122375   0.779   4.647   2.113  0.5026 -0.1920  0.0218
 6978SOL    HW222376   0.720   4.734   2.222 -2.3173 -1.7917 -0.1188
 6979SOL     OW22377   0.526   0.128   9.553 -0.5894 -0.6283  0.3902
 6979SOL    HW122378   0.515   0.117   9.648 -1.0173 -0.8638  0.3172
 6979SOL    HW222379   0.566   0.214   9.543 -1.6115 -0.0888  0.7362
 6980SOL     OW22380   4.867   3.028   8.273  0.6580 -0.1003  0.6170
 6980SOL    HW122381   4.871   2.958   8.208  1.9250 -0.3782  0.9655
 6980SOL    HW222382   4.946   3.017   8.325  2.2791  3.0045 -0.8435
 6981SOL     OW22383   4.511   7.912   0.460  0.6305  0.0443  0.2031
 6981SOL    HW122384   4.596   7.867   0.462  0.9459  0.6076 -0.2422
 6981SOL    HW222385   4.494   7.925   0.367  0.0016 -0.1522  0.2886
 6982SOL     OW22386   6.677   3.556   7.217 -0.5100 -0.0573 -0.0265
 6982SOL    HW122387   6.688   3.531   7.309 -2.1540 -1.1761 -0.0949
 6982SOL    HW222388   6.638   3.643   7.220 -1.0024 -0.2865  0.3539
 6983SOL     OW22389   4.793   6.513   8.045 -0.3138 -0.4636  0.2431
 6983SOL    HW122390   4.821   6.474   8.128  0.2620  0.0299  0.2846
 6983SOL    HW222391   4.874   6.529   7.997 -0.6585 -1.1013 -0.5877
 6984SOL     OW22392   3.301   3.913   5.568 -0.0072 -0.2028  0.5949
 6984SOL    HW122393   3.258   3.922   5.483  0.4243 -0.7144  0.3194
 6984SOL    HW222394   3.246   3.850   5.615 -0.5270  0.4579  0.8860
 6985SOL     OW22395   4.948   5.213   3.084 -0.2475 -0.3346  0.1899
 6985SOL    HW122396   5.007   5.140   3.066 -0.2084 -0.1107 -0.6250
 6985SOL    HW222397   4.998   5.270   3.143  0.3317 -0.1668 -0.4574
 6986SOL     OW22398   4.006   2.559   9.419  0.6194  0.1756  0.5885
 6986SOL    HW122399   4.069   2.624   9.387  0.2857  1.2179  1.9553
 6986SOL    HW222400   4.060   2.489   9.455  1.0520  1.1178  1.8654
 6987SOL     OW22401   0.797   7.835   4.120  0.3035 -0.4355 -0.6989
 6987SOL    HW122402   0.878   7.845   4.169 -0.1657  0.1691 -0.0358
 6987SOL    HW222403   0.764   7.924   4.109  0.5597 -0.5071 -2.4212
 6988SOL     OW22404   3.212   3.827   5.295 -0.0234 -0.1439  0.0885
 6988SOL    HW122405   3.119   3.808   5.312 -0.0983  0.3401  0.2339
 6988SOL    HW222406   3.211   3.880   5.215  0.3893 -3.2327 -2.1435
 6989SOL     OW22407   1.083   1.710   9.770  0.2519 -0.2276 -0.0540
 6989SOL    HW122408   1.048   1.632   9.727  1.1582 -0.9211  0.4072
 6989SOL    HW222409   1.170   1.720   9.732  0.6422 -0.2167  0.8202
 6990SOL     OW22410   4.207   7.843   6.645 -0.1951 -0.5339 -0.3102
 6990SOL    HW122411   4.147   7.844   6.570 -1.3368  1.1813  0.5605
 6990SOL    HW222412   4.170   7.778   6.704  0.3596 -1.4391 -0.9312
 6991SOL     OW22413   0.379   0.827   9.503 -0.1555  0.2341 -0.1497
 6991SOL    HW122414   0.470   0.834   9.475  0.2757 -0.1909  1.0850
 6991SOL    HW222415   0.362   0.733   9.507 -0.1427  0.2686  1.1210
 6992SOL     OW22416   7.765   1.768   7.091  0.5799  0.2153 -0.2597
 6992SOL    HW122417   7.852   1.799   7.118  0.2258  1.3225 -0.3425
 6992SOL    HW222418   7.705   1.836   7.120 -0.0396  0.4415 -1.9517
 6993SOL     OW22419   6.890   2.172   9.500 -0.2490  0.3360 -0.2386
 6993SOL    HW122420   6.801   2.190   9.530  0.2339  2.9298 -0.1620
 6993SOL    HW222421   6.883   2.167   9.405 -0.9855 -3.1137 -0.1273
 6994SOL     OW22422   1.938   4.932   1.245 -0.3721  0.0496 -0.0815
 6994SOL    HW122423   2.003   5.003   1.248  1.2018 -1.3178  0.2169
 6994SOL    HW222424   1.884   4.951   1.169  1.1347  0.6550 -1.0392
 6995SOL     OW22425   0.206   0.736   2.543  0.9059  0.6369 -0.4146
 6995SOL    HW122426   0.290   0.697   2.566  0.0644 -0.1949  1.5034
 6995SOL    HW222427   0.174   0.683   2.470  1.3001 -0.1299 -0.0406
 6996SOL     OW22428   7.432   2.586   9.313  0.1219  0.1886  0.0837
 6996SOL    HW122429   7.350   2.557   9.274  0.6606 -1.0617 -0.1436
 6996SOL    HW222430   7.425   2.682   9.316 -1.0122  0.1345 -0.6398
 6997SOL     OW22431   3.126   5.211   6.883 -0.8234  0.1264  0.4093
 6997SOL    HW122432   3.143   5.293   6.929 -2.0528  0.1468  0.8629
 6997SOL    HW222433   3.142   5.231   6.791 -0.5124  0.7060  0.5833
 6998SOL     OW22434   1.916   4.127  11.807  0.1335 -0.2097  0.6038
 6998SOL    HW122435   1.972   4.163  11.738  0.1596 -2.1659 -0.4764
 6998SOL    HW222436   1.876   4.204  11.848 -0.1102  1.0508 -1.7871
 6999SOL     OW22437   1.997   1.150   5.251  0.3786 -0.3449  0.1076
 6999SOL    HW122438   2.066   1.093   5.217  0.6935  0.3052 -0.3698
 6999SOL    HW222439   2.044   1.222   5.294  0.0199  0.5146 -0.9071
 7000SOL     OW22440   3.226   4.674  11.607 -0.0216 -0.1575  0.1888
 7000SOL    HW122441   3.200   4.624  11.530  0.1994 -0.4009  0.2696
 7000SOL    HW222442   3.322   4.678  11.601  0.0851 -1.0812  1.0005
 7001SOL     OW22443   2.228   2.399   1.553  0.1944  0.3462  0.1665
 7001SOL    HW122444   2.214   2.318   1.503  2.5914 -1.4098  2.0807
 7001SOL    HW222445   2.140   2.427   1.579 -0.6850 -1.9646 -0.0797
 7002SOL     OW22446   0.762   5.774   1.956  0.2165  0.0037  0.3381
 7002SOL    HW122447   0.748   5.688   1.918  0.0031  0.7628 -1.3870
 7002SOL    HW222448   0.826   5.760   2.026  2.7853 -1.0790 -2.0458
 7003SOL     OW22449   1.429   3.623   2.853 -0.1599  0.7310  0.5620
 7003SOL    HW122450   1.365   3.630   2.924 -1.3178 -0.6041 -0.3121
 7003SOL    HW222451   1.397   3.553   2.798  2.0470  0.0415  0.0460
 7004SOL     OW22452   3.403   5.436  11.016 -0.6321  0.2096  0.0419
 7004SOL    HW122453   3.324   5.403  10.974  0.9697 -2.5063 -1.0962
 7004SOL    HW222454   3.426   5.369  11.081 -0.7871  2.3631  2.4967
 7005SOL     OW22455   6.935   0.908   4.271 -0.4307  0.2307 -0.6634
 7005SOL    HW122456   6.980   0.826   4.248 -3.4677 -1.6829 -0.3241
 7005SOL    HW222457   6.948   0.916   4.366  0.7656  0.8091 -0.8468
 7006SOL     OW22458   3.843   5.351  10.220 -0.4883 -0.0007  0.0549
 7006SOL    HW122459   3.871   5.333  10.130  1.9960  3.0076  0.0822
 7006SOL    HW222460   3.884   5.283  10.273 -1.5421 -1.4836 -0.9440
 7007SOL     OW22461   5.917   6.033   6.501  0.3192 -0.6500  0.7193
 7007SOL    HW122462   5.890   5.960   6.445  1.6342 -1.2335  0.8080
 7007SOL    HW222463   5.881   6.012   6.587 -1.5376  0.1482  0.1746
 7008SOL     OW22464   7.544   4.224  11.002 -0.5683 -0.6183 -0.0981
 7008SOL    HW122465   7.581   4.228  10.913  1.1724 -0.3203  0.6023
 7008SOL    HW222466   7.576   4.141  11.037  1.5744  0.7424  1.3775
 7009SOL     OW22467   7.452   1.216   1.838  0.5652  0.1595 -0.4496
 7009SOL    HW122468   7.540   1.186   1.860  0.7452  0.5190 -0.6684
 7009SOL    HW222469   7.458   1.312   1.837  0.3749  0.1791 -1.2547
 7010SOL     OW22470   5.059   0.528   8.061  0.2288  0.7474  0.0060
 7010SOL    HW122471   5.137   0.550   8.112 -1.1552 -1.1896  3.2875
 7010SOL    HW222472   4.987   0.570   8.108 -1.1874 -1.5498  0.0469
 7011SOL     OW22473   6.367   3.435   6.712 -0.0682 -0.0285 -0.2318
 7011SOL    HW122474   6.459   3.447   6.737 -0.1091 -0.0065 -0.0904
 7011SOL    HW222475   6.345   3.348   6.744 -0.4688  0.4644  0.8885
 7012SOL     OW22476   3.137   2.748   0.447  0.5057 -0.5990  0.2034
 7012SOL    HW122477   3.165   2.780   0.361 -1.6030  0.6065 -0.0888
 7012SOL    HW222478   3.159   2.654   0.445  0.4675 -0.6072 -1.6619
 7013SOL     OW22479   1.645   1.717  12.166  0.3260  0.0642 -0.2511
 7013SOL    HW122480   1.738   1.699  12.177  0.6594  1.7065 -0.0145
 7013SOL    HW222481   1.623   1.681  12.080  0.8762 -1.3492  0.1703
 7014SOL     OW22482   2.269   4.285   1.892 -0.0052 -0.0374 -0.6183
 7014SOL    HW122483   2.312   4.200   1.886 -0.7634 -0.5312  0.5425
 7014SOL    HW222484   2.238   4.303   1.803  2.6044  0.4009 -1.5599
 7015SOL     OW22485   6.594   2.636  12.348 -0.2353  0.0101  0.2690
 7015SOL    HW122486   6.629   2.584  12.276 -3.8062 -1.7641 -0.4064
 7015SOL    HW222487   6.528   2.693  12.307 -0.3519  1.0365  1.7802
 7016SOL     OW22488   7.047   6.283  11.938  0.1475  0.0921 -0.0680
 7016SOL    HW122489   7.063   6.191  11.958  1.9896  0.6787  1.5098
 7016SOL    HW222490   7.054   6.288  11.843 -0.9218 -1.5210 -0.2750
 7017SOL     OW22491   5.377   5.950   7.777  0.2566  0.3074 -0.3522
 7017SOL    HW122492   5.292   5.947   7.820  0.7472  2.1395  0.8653
 7017SOL    HW222493   5.368   6.020   7.712  0.0778 -1.2421 -2.0707
 7018SOL     OW22494   2.414   1.904  10.794 -1.1409 -0.5360  0.0819
 7018SOL    HW122495   2.491   1.847  10.792 -0.3699  0.4357  0.8035
 7018SOL    HW222496   2.439   1.980  10.743 -0.9316  0.5766  1.7562
 7019SOL     OW22497   5.273   2.966   5.633 -0.8844 -0.2993 -0.0805
 7019SOL    HW122498   5.238   2.929   5.552  0.3379  0.1992 -0.8687
 7019SOL    HW222499   5.362   2.992   5.610 -0.4633 -0.3034  1.4824
 7020SOL     OW22500   6.265   6.095   7.209  0.1208 -0.4628  0.1257
 7020SOL    HW122501   6.263   6.096   7.113 -0.2769 -1.0275  0.1234
 7020SOL    HW222502   6.201   6.028   7.234  0.8382 -0.9211  0.7682
 7021SOL     OW22503   4.683   7.165   0.219  0.2554 -0.3694  0.2021
 7021SOL    HW122504   4.668   7.200   0.132 -1.3284 -0.8398  0.2404
 7021SOL    HW222505   4.703   7.073   0.205  1.0961 -0.2064  0.2868
 7022SOL     OW22506   2.400   1.894   7.111 -0.5362 -0.1784 -0.2903
 7022SOL    HW122507   2.471   1.871   7.050 -0.5691 -2.2615  0.3793
 7022SOL    HW222508   2.324   1.845   7.079 -1.1198  0.3887  0.2004
 7023SOL     OW22509   5.463   3.675   8.756  0.4043  0.0856  0.1155
 7023SOL    HW122510   5.391   3.722   8.797  0.1233  0.3764 -0.6903
 7023SOL    HW222511   5.421   3.600   8.714  0.6055  0.1173 -0.1442
 7024SOL     OW22512   3.976   1.537   5.222  0.1244 -0.3913  0.3089
 7024SOL    HW122513   3.908   1.506   5.281  0.0494  2.5635  1.9180
 7024SOL    HW222514   3.934   1.604   5.169  0.9879 -0.8637 -1.0483
 7025SOL     OW22515   2.682   6.470   2.735 -0.2195 -0.1470  0.0149
 7025SOL    HW122516   2.696   6.552   2.782 -1.0953 -0.2622  0.4896
 7025SOL    HW222517   2.680   6.496   2.643 -0.2825  0.3320  0.1456
 7026SOL     OW22518   2.220   5.873   3.604 -0.6178  0.1134 -0.4095
 7026SOL    HW122519   2.168   5.870   3.684 -0.8721 -0.5760 -0.5952
 7026SOL    HW222520   2.174   5.816   3.542  0.3317 -0.4944 -0.5892
 7027SOL     OW22521   7.713   6.628  11.996 -0.5489 -0.0317  0.0321
 7027SOL    HW122522   7.772   6.552  11.992 -2.0674 -1.2033 -0.7848
 7027SOL    HW222523   7.647   6.612  11.929  0.1188  2.9686 -1.5490
 7028SOL     OW22524   0.412   5.997   2.067  0.2557  0.1210 -0.0730
 7028SOL    HW122525   0.333   6.052   2.068 -1.3006 -1.9163 -2.1795
 7028SOL    HW222526   0.424   5.972   2.159  0.1425  2.6423  0.7167
 7029SOL     OW22527   2.571   0.815  11.472  0.0761 -0.3520  0.2606
 7029SOL    HW122528   2.571   0.733  11.522  1.6254 -0.9839 -0.6953
 7029SOL    HW222529   2.644   0.806  11.411 -0.0103  1.5691 -0.1952
 7030SOL     OW22530   3.524   5.543   0.801 -0.1244  0.2507  0.1480
 7030SOL    HW122531   3.463   5.512   0.868 -0.4931 -1.9605 -1.0962
 7030SOL    HW222532   3.572   5.465   0.775  1.9226  1.5840 -0.2782
 7031SOL     OW22533   0.513   2.052   9.711 -0.5607 -0.0963 -0.4484
 7031SOL    HW122534   0.422   2.080   9.721 -0.2293  0.8237  0.1677
 7031SOL    HW222535   0.551   2.059   9.799 -0.2931 -2.0011 -0.3832
 7032SOL     OW22536   4.458   3.984  11.095 -0.0248 -0.4321  0.5392
 7032SOL    HW122537   4.423   3.978  11.006 -0.1423 -2.5906  0.6820
 7032SOL    HW222538   4.538   3.932  11.093 -1.0781 -2.2616  2.1219
 7033SOL     OW22539   7.463   4.877   3.271  0.0103  0.2386  0.0170
 7033SOL    HW122540   7.422   4.901   3.188 -0.0473 -0.1676 -0.0737
 7033SOL    HW222541   7.548   4.922   3.270  0.6863 -1.0152 -0.9710
 7034SOL     OW22542   6.630   0.579   2.644  0.0740 -0.0478  0.7890
 7034SOL    HW122543   6.591   0.633   2.575 -0.4036 -0.9668  0.3183
 7034SOL    HW222544   6.596   0.491   2.627  1.8493 -0.7743  0.7513
 7035SOL     OW22545   6.057   7.197   3.713 -0.0691 -0.5190  0.3005
 7035SOL    HW122546   6.024   7.141   3.642 -1.7706  1.8398 -0.9166
 7035SOL    HW222547   5.983   7.205   3.773  0.3638 -0.1033  0.7866
 7036SOL     OW22548   4.740   3.198   3.040  0.3547 -0.0525  0.0205
 7036SOL    HW122549   4.808   3.148   2.996 -1.2994 -2.1451 -0.3060
 7036SOL    HW222550   4.695   3.245   2.969  0.7634  0.4745  0.1052
 7037SOL     OW22551   7.510   2.763   6.470 -0.1047 -0.4268  0.5709
 7037SOL    HW122552   7.420   2.780   6.442 -0.4664 -1.8390  0.7992
 7037SOL    HW222553   7.514   2.796   6.559 -0.0371  0.7054  0.1645
 7038SOL     OW22554   0.068   7.791   9.527  0.3461  0.5472  0.1387
 7038SOL    HW122555   0.074   7.778   9.622 -2.1070 -1.2221  0.1557
 7038SOL    HW222556   0.122   7.721   9.490  0.4605  0.5943  0.2135
 7039SOL     OW22557   1.371   6.203   1.390 -0.3613  0.4478 -0.6811
 7039SOL    HW122558   1.457   6.244   1.387  0.3238 -0.8208  0.6156
 7039SOL    HW222559   1.351   6.184   1.298  1.6052 -0.9529 -0.8780
 7040SOL     OW22560   7.429   2.821   1.689  0.4158  0.1484  0.5665
 7040SOL    HW122561   7.499   2.879   1.718  1.2240  0.8443 -2.4262
 7040SOL    HW222562   7.349   2.873   1.696  0.5602  0.2523  1.5399
 7041SOL     OW22563   1.489   1.592  10.647 -0.4257 -0.0066  0.1680
 7041SOL    HW122564   1.448   1.640  10.575  0.7531  0.3035 -0.3115
 7041SOL    HW222565   1.486   1.500  10.621 -1.4211 -0.0747  0.4574
 7042SOL     OW22566   5.027   5.677   7.711  0.3918 -0.0455  0.3121
 7042SOL    HW122567   5.038   5.771   7.723  2.0837  0.0878 -1.7186
 7042SOL    HW222568   4.971   5.669   7.633  0.1605 -0.7349  0.5425
 7043SOL     OW22569   0.642   6.131   7.868 -0.1484  0.2524 -0.2071
 7043SOL    HW122570   0.699   6.140   7.944 -0.4974  0.2355  0.0578
 7043SOL    HW222571   0.583   6.059   7.890 -0.1476  0.1400 -0.5596
 7044SOL     OW22572   6.573   1.491   0.176 -0.3999 -0.1244 -0.2846
 7044SOL    HW122573   6.637   1.558   0.201 -0.7201 -0.0976  0.4822
 7044SOL    HW222574   6.611   1.451   0.098 -0.5662  1.4305 -1.1869
 7045SOL     OW22575   7.590   5.775   6.629  0.1879 -0.3698 -0.2905
 7045SOL    HW122576   7.600   5.700   6.688 -0.8695  0.1742  0.6235
 7045SOL    HW222577   7.501   5.766   6.595  0.5516 -0.2982 -1.2901
 7046SOL     OW22578   0.880   5.182   5.528 -0.6178 -0.2100 -0.6859
 7046SOL    HW122579   0.910   5.257   5.477 -1.7473  0.9347  0.2622
 7046SOL    HW222580   0.957   5.126   5.535  0.4657  1.1997 -0.8217
 7047SOL     OW22581   3.541   5.482   6.623 -0.2311  0.1856 -0.0641
 7047SOL    HW122582   3.465   5.515   6.576 -1.4305 -1.1805  0.8477
 7047SOL    HW222583   3.508   5.459   6.710  1.0592 -1.0883  0.1245
 7048SOL     OW22584   3.306   3.869   2.863 -0.4290 -0.4866  0.1733
 7048SOL    HW122585   3.216   3.849   2.837 -0.4747 -1.2134  0.8675
 7048SOL    HW222586   3.316   3.962   2.842 -0.8455 -0.7447 -1.3159
 7049SOL     OW22587   3.977   5.376  12.268 -0.0879 -0.4071 -0.1055
 7049SOL    HW122588   4.065   5.349  12.295 -0.0750 -0.7732 -0.5020
 7049SOL    HW222589   3.923   5.361  12.345  0.3885  0.8597  0.5114
 7050SOL     OW22590   2.633   3.255  11.044 -0.2746 -0.0056  0.0824
 7050SOL    HW122591   2.538   3.253  11.031 -0.0744  1.2041 -2.0282
 7050SOL    HW222592   2.666   3.179  10.996 -0.0406  0.6553 -0.8170
 7051SOL     OW22593   6.778   6.808   8.874  0.2185 -0.2173  0.1503
 7051SOL    HW122594   6.696   6.856   8.882  0.0745 -0.6114  1.2335
 7051SOL    HW222595   6.764   6.748   8.800 -1.1579 -1.5609  1.4157
 7052SOL     OW22596   1.882   6.496   6.461 -0.4898 -0.1519  0.7285
 7052SOL    HW122597   1.851   6.539   6.382 -1.4116 -0.5686  0.8457
 7052SOL    HW222598   1.827   6.418   6.469  0.0791 -0.4976  1.3828
 7053SOL     OW22599   3.157   2.860   5.139 -0.2397 -0.0503  0.2057
 7053SOL    HW122600   3.192   2.873   5.050  0.8425 -2.2019  0.2432
 7053SOL    HW222601   3.218   2.907   5.195 -0.7009  0.9862 -0.1306
 7054SOL     OW22602   5.814   1.803   6.373  0.2176 -0.3592  0.2130
 7054SOL    HW122603   5.829   1.846   6.457 -1.0523 -0.9612  0.7768
 7054SOL    HW222604   5.779   1.717   6.396 -1.4076 -0.0488 -0.9309
 7055SOL     OW22605   2.696   5.752  11.154  0.2182 -0.1176  0.2645
 7055SOL    HW122606   2.637   5.747  11.079  1.1923 -2.0579 -0.4350
 7055SOL    HW222607   2.747   5.832  11.139 -1.6418  1.1760  0.4880
 7056SOL     OW22608   4.105   6.741   5.639  0.1194 -0.2630  0.3682
 7056SOL    HW122609   4.013   6.758   5.656  0.2351 -0.4718  1.2882
 7056SOL    HW222610   4.122   6.658   5.685  0.5393 -0.7152 -0.5766
 7057SOL     OW22611   1.176   5.038   5.810  0.1908  0.0214  0.4143
 7057SOL    HW122612   1.149   4.990   5.732  2.2676 -0.2831 -0.1772
 7057SOL    HW222613   1.180   5.129   5.782 -2.7581  0.5046  1.2625
 7058SOL     OW22614   2.476   7.839   7.202  0.3750 -0.1709  0.2110
 7058SOL    HW122615   2.441   7.927   7.189 -1.7671 -1.0851 -0.6373
 7058SOL    HW222616   2.484   7.803   7.114  0.6171 -1.0494  0.5879
 7059SOL     OW22617   7.304   2.954   0.578  0.2381  0.4500 -0.1295
 7059SOL    HW122618   7.385   2.967   0.627 -0.7184  2.2285  1.0730
 7059SOL    HW222619   7.244   3.021   0.611 -0.5505  1.6986 -3.5921
 7060SOL     OW22620   6.796   6.793  12.061  0.5402 -0.2997  0.0319
 7060SOL    HW122621   6.826   6.799  12.152 -1.0050  1.2353  0.4960
 7060SOL    HW222622   6.839   6.715  12.027  0.5402 -1.3768  2.3187
 7061SOL     OW22623   1.060   1.632   6.095 -0.4751  0.2021  0.0986
 7061SOL    HW122624   1.072   1.546   6.055  0.4114  0.1569  0.4457
 7061SOL    HW222625   1.148   1.659   6.120 -0.7999  1.0349  0.3626
 7062SOL     OW22626   4.054   2.428   7.177 -0.4093  0.2924  0.1884
 7062SOL    HW122627   4.000   2.351   7.166 -0.0074 -0.0911  0.8483
 7062SOL    HW222628   4.071   2.433   7.271  0.9751  0.1961 -0.0353
 7063SOL     OW22629   4.808   6.407   8.952 -0.3404 -0.3733 -0.0927
 7063SOL    HW122630   4.864   6.439   8.881 -1.8959 -1.7844 -2.0921
 7063SOL    HW222631   4.862   6.412   9.030  0.9232  2.8623 -1.0207
 7064SOL     OW22632   2.790   3.949   0.096  0.2926  0.5572  0.1969
 7064SOL    HW122633   2.878   3.953   0.058  0.0702 -0.0200 -0.3878
 7064SOL    HW222634   2.768   3.856   0.095 -0.1400  0.6493  0.7785
 7065SOL     OW22635   1.898   7.008  11.192  0.0870  0.1201 -0.4998
 7065SOL    HW122636   1.869   7.014  11.101  1.4741  0.5165 -0.9386
 7065SOL    HW222637   1.980   6.960  11.188 -0.2216 -0.5431  0.6489
 7066SOL     OW22638   7.726   4.815   5.156  0.1183  0.3429 -0.1083
 7066SOL    HW122639   7.811   4.860   5.151  0.8699 -1.0113  0.0008
 7066SOL    HW222640   7.740   4.746   5.221 -1.7326  1.4346  1.5388
 7067SOL     OW22641   4.730   3.272   0.275 -0.6041  0.3098 -0.1725
 7067SOL    HW122642   4.657   3.233   0.227 -2.4643  1.0538  1.8524
 7067SOL    HW222643   4.694   3.291   0.362  3.0496 -2.8745  2.4011
 7068SOL     OW22644   1.893   1.044   0.958  0.5342 -0.2417 -0.2297
 7068SOL    HW122645   1.938   1.029   0.875 -1.1041 -0.6977 -1.0853
 7068SOL    HW222646   1.839   0.966   0.970  0.6049 -0.0922  1.1939
 7069SOL     OW22647   0.957   6.303   7.174 -0.1113  0.3987 -0.1814
 7069SOL    HW122648   1.005   6.231   7.134 -0.6268 -1.5326  2.4022
 7069SOL    HW222649   0.865   6.281   7.161 -0.2788  0.1240  1.2412
 7070SOL     OW22650   2.710   0.530  10.502 -0.4471 -0.3746  0.7056
 7070SOL    HW122651   2.768   0.455  10.505 -1.1390 -1.1502 -2.2431
 7070SOL    HW222652   2.738   0.580  10.426 -0.0412  2.4398  2.5273
 7071SOL     OW22653   6.527   1.406   6.443 -0.0425  0.6940 -0.1256
 7071SOL    HW122654   6.502   1.315   6.458  0.4505  0.7576  1.2176
 7071SOL    HW222655   6.579   1.429   6.519  1.6135  1.4721 -1.4300
 7072SOL     OW22656   5.914   1.385   6.173 -0.0854 -0.2651 -0.1909
 7072SOL    HW122657   5.871   1.455   6.223 -0.4689 -1.6099  1.4790
 7072SOL    HW222658   5.848   1.358   6.109  0.3235  1.3275 -1.3415
 7073SOL     OW22659   5.883   6.426   6.984 -0.0570 -0.0422 -0.4645
 7073SOL    HW122660   5.975   6.401   6.976  0.5292  1.9787 -0.6832
 7073SOL    HW222661   5.840   6.383   6.911  0.4917 -1.8718  0.2468
 7074SOL     OW22662   3.026   6.588  10.867  0.3334  0.1816 -0.0256
 7074SOL    HW122663   3.038   6.620  10.778 -0.1626  1.1274  0.2311
 7074SOL    HW222664   2.980   6.659  10.912  1.7626  0.2987  1.3460
 7075SOL     OW22665   2.736   1.518   3.082  0.2221 -0.6241 -0.1777
 7075SOL    HW122666   2.708   1.434   3.046 -1.1134  0.0432 -0.7551
 7075SOL    HW222667   2.821   1.534   3.041  0.1238 -1.3211 -0.6703
 7076SOL     OW22668   2.761   6.728   9.210 -0.7875  0.0137 -0.0256
 7076SOL    HW122669   2.810   6.790   9.156 -2.9401 -0.8176 -3.1866
 7076SOL    HW222670   2.737   6.777   9.288  1.1629  1.7810 -0.4641
 7077SOL     OW22671   0.643   7.626  11.699 -0.2326 -0.8214  0.8676
 7077SOL    HW122672   0.699   7.682  11.752 -0.8740  0.4627  0.2412
 7077SOL    HW222673   0.559   7.626  11.745  0.0182 -2.0526  1.3589
 7078SOL     OW22674   0.349   4.647   2.190 -0.1161 -0.6952 -0.0669
 7078SOL    HW122675   0.381   4.734   2.214 -1.0959 -0.2654 -0.2924
 7078SOL    HW222676   0.270   4.663   2.139 -0.3604 -1.7224 -0.0390
 7079SOL     OW22677   6.587   3.463   3.537  0.2242 -0.3811  0.1822
 7079SOL    HW122678   6.645   3.473   3.461 -1.1537 -2.1826 -1.2260
 7079SOL    HW222679   6.516   3.526   3.521  0.0817 -0.5593  0.1027
 7080SOL     OW22680   4.565   5.521   1.939  0.0122 -0.3516  0.0810
 7080SOL    HW122681   4.636   5.583   1.923 -0.4593  0.5006  1.1647
 7080SOL    HW222682   4.589   5.443   1.888  1.3216  0.2012 -0.1837
 7081SOL     OW22683   1.971   6.434   1.852 -0.1820  0.2014 -0.4011
 7081SOL    HW122684   2.009   6.410   1.936 -0.1950 -0.6209 -0.6245
 7081SOL    HW222685   1.938   6.523   1.865 -0.0208  0.1506  0.4004
 7082SOL     OW22686   6.962   0.502   6.294  0.1810  0.4742 -0.0976
 7082SOL    HW122687   6.935   0.410   6.302  0.1045  0.4551 -0.5110
 7082SOL    HW222688   6.997   0.509   6.205  0.5423  0.7587  0.0621
 7083SOL     OW22689   4.377   5.912   0.311  0.1622 -0.4232  0.2167
 7083SOL    HW122690   4.351   5.913   0.403  1.0550 -1.2093  0.4889
 7083SOL    HW222691   4.307   5.862   0.267 -0.8824  0.9484  0.2467
 7084SOL     OW22692   2.530   2.320   2.344  0.0222  0.1946  0.6359
 7084SOL    HW122693   2.559   2.395   2.291  0.0063 -0.5560 -0.4677
 7084SOL    HW222694   2.589   2.249   2.319  0.3647 -0.0549  2.0551
 7085SOL     OW22695   4.540   0.457   8.993  0.6304 -0.1952 -0.7817
 7085SOL    HW122696   4.489   0.538   8.995  1.3529  0.2584 -0.4087
 7085SOL    HW222697   4.571   0.449   8.903  3.7199  1.9803 -0.0581
 7086SOL     OW22698   2.027   3.876   8.383 -0.1081  0.0030 -0.2691
 7086SOL    HW122699   2.069   3.791   8.393 -1.6664 -0.5812  2.9352
 7086SOL    HW222700   1.954   3.860   8.323  1.1825 -0.2021 -1.8305
 7087SOL     OW22701   7.570   3.319   1.376  0.8914  0.5952 -0.2169
 7087SOL    HW122702   7.651   3.284   1.341  0.4300 -1.9249  0.9608
 7087SOL    HW222703   7.501   3.267   1.334  0.1214  0.2557  1.3887
 7088SOL     OW22704   0.850   0.823   0.389  0.4108  0.0571 -0.4441
 7088SOL    HW122705   0.907   0.751   0.417  0.8080  0.5761  0.1087
 7088SOL    HW222706   0.778   0.780   0.343  0.8738 -0.6610 -0.5196
 7089SOL     OW22707   2.614   6.302   7.640  0.0257 -0.6267  0.0689
 7089SOL    HW122708   2.643   6.330   7.727 -2.6047 -0.5386  1.0065
 7089SOL    HW222709   2.694   6.303   7.587  1.5168  0.4251  2.1681
 7090SOL     OW22710   1.633   2.476   2.710  0.6379  0.2399 -0.2007
 7090SOL    HW122711   1.648   2.462   2.616 -1.1269 -0.3712 -0.4372
 7090SOL    HW222712   1.579   2.555   2.714 -1.1483 -0.9346  0.0912
 7091SOL     OW22713   6.649   7.454   1.771 -0.5422 -0.3581 -0.2456
 7091SOL    HW122714   6.721   7.393   1.788  0.4478  1.0714  1.0032
 7091SOL    HW222715   6.571   7.411   1.807  0.2236 -0.6764  1.0886
 7092SOL     OW22716   4.675   6.835  11.413  0.0929 -0.1296  0.0426
 7092SOL    HW122717   4.726   6.755  11.422 -0.6526 -0.4785  1.3052
 7092SOL    HW222718   4.695   6.886  11.492 -2.4125 -0.8282  1.2145
 7093SOL     OW22719   2.465   4.884   6.865  0.2559  0.0094  0.0125
 7093SOL    HW122720   2.540   4.824   6.862  0.2621  0.0243 -2.4151
 7093SOL    HW222721   2.498   4.962   6.911  1.9900  0.2796 -1.5622
 7094SOL     OW22722   3.385   7.475   5.500  0.1957 -0.0595  0.2112
 7094SOL    HW122723   3.474   7.510   5.501  0.4990 -0.8132  0.7362
 7094SOL    HW222724   3.329   7.551   5.520  0.8866  0.0104  2.0425
 7095SOL     OW22725   7.276   1.628  11.788 -0.2719 -0.1340  0.0080
 7095SOL    HW122726   7.188   1.642  11.753 -0.1884  0.5006  0.0506
 7095SOL    HW222727   7.284   1.533  11.794 -0.7569 -0.2110 -0.4990
 7096SOL     OW22728   3.421   5.600   7.394  0.0118  0.5254 -0.0296
 7096SOL    HW122729   3.348   5.661   7.402  0.5076  0.9550  1.5970
 7096SOL    HW222730   3.473   5.613   7.474  1.3773 -0.4069 -0.7153
 7097SOL     OW22731   7.933   6.530   9.423  0.2432 -0.3233  0.3629
 7097SOL    HW122732   7.862   6.553   9.482 -1.8571 -0.7609 -1.8419
 7097SOL    HW222733   7.964   6.613   9.389 -0.4035 -0.2116  0.0403
 7098SOL     OW22734   4.433   0.341   0.528 -0.1804 -0.0157 -0.3359
 7098SOL    HW122735   4.397   0.400   0.594  0.5450  0.1001 -0.0362
 7098SOL    HW222736   4.441   0.256   0.573  0.8653  0.2013 -0.0732
 7099SOL     OW22737   6.187   1.116  10.263 -0.0323  0.0869  0.0015
 7099SOL    HW122738   6.131   1.192  10.249 -1.0199 -0.9208 -1.9605
 7099SOL    HW222739   6.276   1.147  10.245 -0.1807  1.1916  1.0795
 7100SOL     OW22740   7.652   5.077   6.250  0.3097  0.2376  0.4438
 7100SOL    HW122741   7.559   5.058   6.264  0.3593 -0.4387 -0.0821
 7100SOL    HW222742   7.677   5.132   6.325 -0.9011  1.8198 -0.2496
 7101SOL     OW22743   4.035   1.109   7.463  0.8965  0.0455 -0.7831
 7101SOL    HW122744   4.013   1.185   7.409 -2.5723 -0.5056 -0.3538
 7101SOL    HW222745   3.987   1.036   7.425 -1.1612 -0.5098  2.4778
 7102SOL     OW22746   6.425   1.653   7.555  0.3949  0.4688 -0.1863
 7102SOL    HW122747   6.377   1.728   7.522  0.6224  0.2605 -1.0155
 7102SOL    HW222748   6.431   1.593   7.481  1.0984  0.0777  0.1678
 7103SOL     OW22749   5.535   3.414  11.870  0.0121 -0.1035  0.5318
 7103SOL    HW122750   5.452   3.416  11.822  1.2407  0.9151 -1.6743
 7103SOL    HW222751   5.509   3.414  11.962 -2.4361  0.4001 -0.0852
 7104SOL     OW22752   7.195   5.235   2.440 -0.7366 -0.4317 -0.5888
 7104SOL    HW122753   7.217   5.217   2.531 -1.6922 -3.4324 -0.8390
 7104SOL    HW222754   7.278   5.226   2.393 -0.5621 -0.7627 -0.2233
 7105SOL     OW22755   1.449   6.836  11.114 -0.7895  0.2565 -0.5077
 7105SOL    HW122756   1.481   6.906  11.057  0.2682 -0.0980 -0.3538
 7105SOL    HW222757   1.421   6.767  11.055 -0.9669  0.4283 -0.6281
 7106SOL     OW22758   5.857   2.630   0.968 -0.3370 -0.4584 -0.1285
 7106SOL    HW122759   5.916   2.687   1.017  0.4092 -0.7241 -0.6860
 7106SOL    HW222760   5.785   2.612   1.028  0.9638 -1.4908  1.2095
 7107SOL     OW22761   6.309   3.826   1.737 -0.1922  0.1844  0.3008
 7107SOL    HW122762   6.326   3.798   1.827  1.6385  0.9833  0.2407
 7107SOL    HW222763   6.240   3.892   1.745 -0.5805 -0.2918  1.0196
 7108SOL     OW22764   1.936   7.781   4.926  0.2855  0.0895 -0.3299
 7108SOL    HW122765   1.963   7.859   4.975  1.0612 -0.4263  0.0865
 7108SOL    HW222766   1.916   7.715   4.993 -0.8667  0.0731 -0.6658
 7109SOL     OW22767   1.877   2.702  11.136  0.2136 -0.2086 -0.7796
 7109SOL    HW122768   1.913   2.684  11.049  1.0944  0.8474 -0.6462
 7109SOL    HW222769   1.921   2.781  11.165 -0.8019  0.0209  0.2255
 7110SOL     OW22770   6.042   7.668  11.863  0.0600 -0.4989  0.2506
 7110SOL    HW122771   6.032   7.727  11.938 -0.5371  0.5151 -0.5980
 7110SOL    HW222772   6.035   7.580  11.900  0.3903 -0.0246  1.4647
 7111SOL     OW22773   3.580   2.625   1.379 -0.5718  0.2056  0.0935
 7111SOL    HW122774   3.612   2.600   1.293  0.9195  0.8422  0.4155
 7111SOL    HW222775   3.644   2.588   1.440 -1.3065  0.2138  0.8878
 7112SOL     OW22776   2.160   0.590   5.373 -0.9567  0.1162 -0.0553
 7112SOL    HW122777   2.141   0.675   5.333 -0.9681  0.1794  0.0838
 7112SOL    HW222778   2.239   0.559   5.328 -1.9826 -0.6441 -1.4020
 7113SOL     OW22779   3.815   6.961   5.100  0.4184 -0.2011  0.0647
 7113SOL    HW122780   3.774   6.938   5.017  0.2445 -1.0601  0.3785
 7113SOL    HW222781   3.819   6.878   5.149 -0.8312  0.5437  1.5005
 7114SOL     OW22782   5.632   0.961  10.111 -0.3368 -1.0452 -0.0665
 7114SOL    HW122783   5.672   0.949  10.197 -0.6481 -0.8634  0.1065
 7114SOL    HW222784   5.689   0.913  10.051 -1.8857 -3.9850  0.6667
 7115SOL     OW22785   1.410   6.549   5.894  0.0149  0.6722 -0.0868
 7115SOL    HW122786   1.482   6.590   5.845 -1.6211  2.4716 -1.0971
 7115SOL    HW222787   1.401   6.602   5.973 -0.0967  0.3197  0.1416
 7116SOL     OW22788   2.125   0.106   2.813  0.4708 -0.3669 -0.3565
 7116SOL    HW122789   2.205   0.065   2.845  0.7466  0.3443 -0.1237
 7116SOL    HW222790   2.153   0.160   2.739 -0.0053 -1.1743 -1.1449
 7117SOL     OW22791   4.446   5.680   7.181 -0.4711 -0.2633  0.1632
 7117SOL    HW122792   4.530   5.716   7.211 -0.4439 -1.0704  1.1010
 7117SOL    HW222793   4.451   5.587   7.200 -1.0727 -0.5632 -1.0073
 7118SOL     OW22794   4.677   0.504   7.237  0.0324 -0.1329 -0.0729
 7118SOL    HW122795   4.738   0.433   7.258 -0.9302 -1.6011 -1.9627
 7118SOL    HW222796   4.730   0.583   7.243  0.5917 -0.5495  4.6387
 7119SOL     OW22797   0.348   0.064   6.519 -0.2895  0.0271  0.7442
 7119SOL    HW122798   0.292  -0.008   6.491 -0.1592  0.0564  0.4053
 7119SOL    HW222799   0.287   0.133   6.546 -0.4137 -0.0142  0.5656
 7120SOL     OW22800   5.159   1.126   7.485 -0.1411  0.2641 -0.1843
 7120SOL    HW122801   5.164   1.034   7.461 -0.7696  0.2316 -0.2173
 7120SOL    HW222802   5.098   1.165   7.421  2.8201  1.5047 -2.4884
 7121SOL     OW22803   0.900   5.205   2.541  0.1527 -0.0669  0.7299
 7121SOL    HW122804   0.821   5.158   2.569 -0.0337  1.0703  2.2491
 7121SOL    HW222805   0.872   5.297   2.537  0.4267 -0.0306 -2.4335
 7122SOL     OW22806   3.315   3.326   6.566 -0.2061  0.5121 -0.3544
 7122SOL    HW122807   3.291   3.282   6.648  0.6525  2.0462  0.7744
 7122SOL    HW222808   3.287   3.265   6.497 -2.8742  0.0888  0.9675
 7123SOL     OW22809   5.293   2.394   0.428 -0.2423  0.0325  0.0677
 7123SOL    HW122810   5.300   2.466   0.491  0.5180 -0.6602  0.8067
 7123SOL    HW222811   5.273   2.436   0.345 -0.5681  1.0324  0.6366
 7124SOL     OW22812   0.773   3.295  10.308  0.3533  0.5226  0.0597
 7124SOL    HW122813   0.856   3.292  10.354  0.9834  1.8993 -0.9128
 7124SOL    HW222814   0.750   3.388  10.305 -0.6155  0.2824 -0.7328
 7125SOL     OW22815   7.405   3.070   3.198 -0.0861  0.0662  0.0650
 7125SOL    HW122816   7.467   3.091   3.267  0.5162  2.5940 -1.1156
 7125SOL    HW222817   7.454   3.084   3.117 -1.1368 -1.5614 -0.9083
 7126SOL     OW22818   0.580   1.790   9.659 -0.5456  0.3148  0.4896
 7126SOL    HW122819   0.557   1.747   9.741  0.3555  1.6217  1.4768
 7126SOL    HW222820   0.534   1.874   9.662 -1.2768 -0.0212 -0.8073
 7127SOL     OW22821   7.619   6.812   3.721 -0.5379 -0.3311  0.0348
 7127SOL    HW122822   7.711   6.785   3.725 -0.7878 -1.0962  0.8216
 7127SOL    HW222823   7.613   6.885   3.782 -0.7849 -1.3153  1.2119
 7128SOL     OW22824   6.139   2.295   5.769  0.7555  0.1655  0.1191
 7128SOL    HW122825   6.190   2.360   5.720  2.6268 -0.9262  0.5067
 7128SOL    HW222826   6.174   2.299   5.858 -0.6608  0.1612  0.6998
 7129SOL     OW22827   4.998   1.213   4.161  0.2431 -0.1481 -0.3857
 7129SOL    HW122828   4.975   1.303   4.182  1.2935  0.2527 -0.9336
 7129SOL    HW222829   4.944   1.160   4.221 -0.9416  0.8008 -0.5876
 7130SOL     OW22830   2.472   4.100   4.728 -0.0225 -0.4078  0.0751
 7130SOL    HW122831   2.451   4.108   4.635  0.4709 -0.2398 -0.0246
 7130SOL    HW222832   2.562   4.133   4.735 -0.5733  0.9930  0.8529
 7131SOL     OW22833   3.110   3.833   6.715 -0.6648  0.7845  0.3507
 7131SOL    HW122834   3.158   3.881   6.648 -0.5928  0.2133 -0.0131
 7131SOL    HW222835   3.158   3.851   6.796  0.2064  0.1824 -0.0122
 7132SOL     OW22836   2.375   0.912   4.347  0.3972  0.0418  0.1066
 7132SOL    HW122837   2.461   0.921   4.388  0.3841  1.5704 -0.1357
 7132SOL    HW222838   2.327   0.852   4.404  0.2335  2.3716  2.6209
 7133SOL     OW22839   6.693   3.046  12.284  0.2547  0.1769 -0.4088
 7133SOL    HW122840   6.783   3.054  12.314 -0.0842  2.0872  0.2213
 7133SOL    HW222841   6.642   3.031  12.364 -0.1415  0.4649 -0.6036
 7134SOL     OW22842   3.560   4.093   2.296 -0.3321  0.2682 -0.4782
 7134SOL    HW122843   3.598   4.010   2.324 -2.1743 -0.5478 -0.2253
 7134SOL    HW222844   3.634   4.154   2.294  1.1137 -1.4047 -0.8766
 7135SOL     OW22845   3.009   1.727   8.898  0.5230  0.6830  0.1601
 7135SOL    HW122846   3.094   1.768   8.878  1.0566 -0.0752  0.8321
 7135SOL    HW222847   2.960   1.795   8.944  0.4910  1.3624 -0.8373
 7136SOL     OW22848   2.333   7.564   9.934 -0.0364  0.0144 -0.6438
 7136SOL    HW122849   2.348   7.469   9.931  1.2649  0.2300 -1.7966
 7136SOL    HW222850   2.305   7.581  10.024 -0.4532 -1.4811 -0.4653
 7137SOL     OW22851   1.433   0.080   5.814  0.4552  0.0920  0.2010
 7137SOL    HW122852   1.444   0.052   5.906 -0.5357  2.3329  1.0652
 7137SOL    HW222853   1.365   0.146   5.817  1.3710  1.2263 -1.9783
 7138SOL     OW22854   0.185   3.786   9.721  0.0229  0.0843 -0.4528
 7138SOL    HW122855   0.141   3.718   9.774  1.6348 -0.0080  0.8423
 7138SOL    HW222856   0.226   3.738   9.649  0.9615 -0.3262  0.3299
 7139SOL     OW22857   2.306   0.249   3.163  0.6175  0.2277  0.0247
 7139SOL    HW122858   2.329   0.157   3.175  1.3677  0.1496 -1.7251
 7139SOL    HW222859   2.227   0.248   3.109  0.1534  0.6118  0.6816
 7140SOL     OW22860   0.112   4.104  10.083 -0.1710 -0.4825  0.2847
 7140SOL    HW122861   0.058   4.034  10.120  0.2667 -0.5982  0.7141
 7140SOL    HW222862   0.110   4.089   9.989 -2.0928  0.3746  0.1286
 7141SOL     OW22863   2.739   7.806   0.937 -0.8795  0.1002  0.0836
 7141SOL    HW122864   2.797   7.872   0.976 -0.6137 -0.7065  1.0817
 7141SOL    HW222865   2.667   7.857   0.899 -0.2998  1.0082  0.1684
 7142SOL     OW22866   0.456   3.579   2.612 -0.3998  0.0110 -0.5666
 7142SOL    HW122867   0.480   3.489   2.634 -0.8018  0.5538  2.4356
 7142SOL    HW222868   0.442   3.621   2.696 -1.2892  2.6234 -1.9369
 7143SOL     OW22869   2.741   2.516   2.260 -0.3847 -0.4448 -0.1783
 7143SOL    HW122870   2.666   2.574   2.246  0.1365  0.5541  0.9335
 7143SOL    HW222871   2.808   2.573   2.297 -0.0918 -1.8761  1.6374
 7144SOL     OW22872   2.573   7.769   2.397 -0.4404 -0.4198  0.4102
 7144SOL    HW122873   2.640   7.768   2.466  1.6683 -2.0759 -1.4706
 7144SOL    HW222874   2.534   7.681   2.401  0.5373 -0.9674 -1.1575
 7145SOL     OW22875   6.270   1.635  11.140 -0.4720 -0.1969  0.2358
 7145SOL    HW122876   6.272   1.591  11.225  0.2987  0.5651  0.6269
 7145SOL    HW222877   6.178   1.634  11.115 -0.7132 -0.4153  1.0985
 7146SOL     OW22878   2.648   5.112   4.291  0.2310 -0.0245 -0.2213
 7146SOL    HW122879   2.680   5.028   4.325 -0.5257  0.5230  2.0542
 7146SOL    HW222880   2.705   5.132   4.217  0.6719 -2.3443 -0.5642
 7147SOL     OW22881   6.621   6.803   1.215 -0.0149  0.4898 -0.3219
 7147SOL    HW122882   6.699   6.788   1.163  0.4109  0.1668  0.3900
 7147SOL    HW222883   6.562   6.731   1.191  0.8351 -0.6375  0.8432
 7148SOL     OW22884   5.732   2.387   8.616 -0.5140  0.1309 -0.4463
 7148SOL    HW122885   5.771   2.444   8.682  2.3695 -0.8657 -1.1158
 7148SOL    HW222886   5.745   2.435   8.534 -0.7243 -0.2270 -0.6885
 7149SOL     OW22887   7.171   4.214   6.427 -0.3998  0.3265  0.3886
 7149SOL    HW122888   7.084   4.195   6.461 -0.9842  0.1195 -1.1169
 7149SOL    HW222889   7.224   4.138   6.450 -0.6195  0.4378  1.2775
 7150SOL     OW22890   7.267   0.727   0.825  0.3901 -0.7003 -0.3011
 7150SOL    HW122891   7.207   0.782   0.876  0.3321 -0.8066 -0.2550
 7150SOL    HW222892   7.289   0.655   0.884  0.7041 -0.5685 -0.2530
 7151SOL     OW22893   5.071   2.595   8.862  0.3568 -0.6716 -0.3283
 7151SOL    HW122894   4.983   2.631   8.855  0.7944  0.6767  0.8331
 7151SOL    HW222895   5.089   2.559   8.775 -1.0044 -0.1959 -0.8267
 7152SOL     OW22896   3.386   7.514   2.727  0.5484  0.0587 -0.3895
 7152SOL    HW122897   3.323   7.570   2.772  0.7197  1.1211 -1.4304
 7152SOL    HW222898   3.333   7.447   2.684  0.1647  0.5804 -0.7437
 7153SOL     OW22899   6.113   5.087   1.543  0.3269 -0.4891  0.0628
 7153SOL    HW122900   6.026   5.067   1.508  0.3816 -0.7422  0.0630
 7153SOL    HW222901   6.107   5.176   1.576  0.7085  0.3688 -2.0197
 7154SOL     OW22902   4.369   4.529  11.037  0.0153  0.4975 -0.3027
 7154SOL    HW122903   4.438   4.585  11.072  0.0262  0.8508 -0.8826
 7154SOL    HW222904   4.379   4.446  11.085  0.1498  0.9061  0.3773
 7155SOL     OW22905   4.375   0.931   4.059 -0.0142 -0.4682 -0.0619
 7155SOL    HW122906   4.410   0.889   4.138 -1.9541  0.2962  1.2649
 7155SOL    HW222907   4.453   0.965   4.014  1.2924 -2.3526  0.6181
 7156SOL     OW22908   7.722   7.450   2.674 -0.1786 -0.1141 -0.1565
 7156SOL    HW122909   7.682   7.510   2.736 -0.6991 -0.8093  0.1902
 7156SOL    HW222910   7.793   7.500   2.635 -0.6721  0.7570  0.0470
 7157SOL     OW22911   7.441   6.134   2.118  0.0051  0.0691  0.0152
 7157SOL    HW122912   7.464   6.041   2.124 -2.3013 -0.6890 -1.4271
 7157SOL    HW222913   7.482   6.174   2.194  0.1153 -2.3320  1.3149
 7158SOL     OW22914   4.124   5.666   6.082 -0.1320  0.0606 -0.2696
 7158SOL    HW122915   4.116   5.668   6.178  1.7102  0.2479 -0.0753
 7158SOL    HW222916   4.158   5.579   6.063  0.5708  0.4112 -0.6392
 7159SOL     OW22917   0.703   1.359   1.803 -0.2099 -0.1463 -0.0128
 7159SOL    HW122918   0.702   1.348   1.898 -1.8273 -0.2155 -0.0092
 7159SOL    HW222919   0.737   1.276   1.769  1.9958  0.4796  0.5286
 7160SOL     OW22920   6.705   3.659   7.910  0.0293  0.1881  0.2202
 7160SOL    HW122921   6.777   3.600   7.886 -1.2113 -1.4922  0.4104
 7160SOL    HW222922   6.628   3.622   7.867 -0.7307  2.0117 -0.0901
 7161SOL     OW22923   5.518   3.842   2.441  0.4057 -0.1187 -0.1534
 7161SOL    HW122924   5.502   3.818   2.350 -0.4417 -1.2860  0.2746
 7161SOL    HW222925   5.575   3.918   2.437 -0.9641  0.8693 -1.6890
 7162SOL     OW22926   5.712   7.044   0.702  0.3922 -0.0914  0.4271
 7162SOL    HW122927   5.768   7.054   0.779  0.4347 -0.0184  0.3865
 7162SOL    HW222928   5.623   7.052   0.736  0.4359  1.0654  0.3071
 7163SOL     OW22929   0.549   7.887   3.299  0.6457 -0.3612  0.1353
 7163SOL    HW122930   0.569   7.941   3.376 -0.2756 -1.3001  1.0678
 7163SOL    HW222931   0.627   7.835   3.284  0.6687 -0.4994  0.7281
 7164SOL     OW22932   3.784   7.689   3.225  0.1061 -0.0778 -0.2860
 7164SOL    HW122933   3.822   7.601   3.218  1.6612  0.2960  2.1804
 7164SOL    HW222934   3.702   7.677   3.272  1.4476 -0.0423  2.1842
 7165SOL     OW22935   5.249   2.946   0.247  0.9497  0.9429 -0.0237
 7165SOL    HW122936   5.183   3.002   0.206 -1.7138 -2.0547 -0.2918
 7165SOL    HW222937   5.227   2.947   0.340  1.4186  0.9599  0.0900
 7166SOL     OW22938   4.446   0.883   1.488  0.3930 -0.0764  0.2073
 7166SOL    HW122939   4.422   0.837   1.568  0.3317 -0.8953 -0.2793
 7166SOL    HW222940   4.448   0.976   1.514 -3.2111  0.1337  0.3624
 7167SOL     OW22941   0.139   4.989  10.221  0.1015  0.3317 -0.3279
 7167SOL    HW122942   0.175   5.078  10.217 -2.0656  1.4415  2.0026
 7167SOL    HW222943   0.071   4.989  10.153  0.7786  0.0725 -1.0212
 7168SOL     OW22944   1.757   1.172   0.525 -0.1991 -0.2920  0.4569
 7168SOL    HW122945   1.693   1.150   0.593 -0.3207 -1.3496  0.0190
 7168SOL    HW222946   1.705   1.190   0.447 -0.0590  0.9310  0.6304
 7169SOL     OW22947   3.562   2.703   4.653 -0.2172  0.6930  0.1539
 7169SOL    HW122948   3.563   2.661   4.739 -0.7185  1.3548  0.4892
 7169SOL    HW222949   3.607   2.641   4.596  0.7594  0.5701  1.0320
 7170SOL     OW22950   4.876   1.411   8.159  0.3303  0.5257  0.0864
 7170SOL    HW122951   4.857   1.408   8.252  2.6560  1.8526  0.6762
 7170SOL    HW222952   4.884   1.504   8.138  0.6096  0.2259 -1.2716
 7171SOL     OW22953   2.781   5.018  10.130  0.6040 -0.0825  0.1107
 7171SOL    HW122954   2.706   5.072  10.154  0.2607  1.3707 -3.5365
 7171SOL    HW222955   2.763   4.933  10.170 -2.1900  0.6735  0.6953
 7172SOL     OW22956   1.403   5.734   3.053  0.4519  0.7733 -0.4761
 7172SOL    HW122957   1.398   5.680   2.973  2.8095 -0.4935  0.1375
 7172SOL    HW222958   1.470   5.691   3.106 -2.0877  0.6164  2.9633
 7173SOL     OW22959   0.144   0.513   0.213  0.0070 -0.1082  0.2208
 7173SOL    HW122960   0.051   0.517   0.235 -0.1689 -1.3153 -0.2585
 7173SOL    HW222961   0.146   0.484   0.122  0.8707 -2.9910  1.0488
 7174SOL     OW22962   4.045   2.538  11.108 -0.8023 -0.0433  0.1814
 7174SOL    HW122963   4.074   2.565  11.195 -0.4502 -1.9456  0.7011
 7174SOL    HW222964   4.060   2.615  11.053  1.1241  0.4683  1.3266
 7175SOL     OW22965   1.588   4.621   1.660 -0.7037 -0.4532 -0.4914
 7175SOL    HW122966   1.509   4.573   1.683 -0.5057 -0.3734  0.3800
 7175SOL    HW222967   1.560   4.681   1.590 -1.1398 -1.2204 -0.9936
 7176SOL     OW22968   6.874   1.127   6.363  0.0184 -0.3602 -0.2090
 7176SOL    HW122969   6.930   1.071   6.417  0.0660  1.1419  1.3864
 7176SOL    HW222970   6.918   1.212   6.363 -1.5450  0.4862 -0.0863
 7177SOL     OW22971   2.045   3.966   0.126 -0.4600  0.0424 -0.4807
 7177SOL    HW122972   1.989   3.968   0.204  0.1518 -1.8420  0.0535
 7177SOL    HW222973   2.056   4.058   0.103 -0.3632  0.7025  1.8955
 7178SOL     OW22974   4.256   5.469   5.705  0.5936  0.1723 -0.0357
 7178SOL    HW122975   4.265   5.401   5.638  1.4585  0.5164 -0.2745
 7178SOL    HW222976   4.175   5.446   5.752  0.4542 -0.5647 -0.6270
 7179SOL     OW22977   2.381   0.600   7.020  0.2977 -0.1050  0.1665
 7179SOL    HW122978   2.346   0.530   7.076  0.9091 -0.4492  0.1306
 7179SOL    HW222979   2.476   0.589   7.026  0.3669 -0.3886 -1.2517
 7180SOL     OW22980   5.834   4.983   5.995  0.0127 -0.1940 -0.4100
 7180SOL    HW122981   5.913   5.023   6.031  1.2865 -0.3546 -2.8474
 7180SOL    HW222982   5.859   4.954   5.907 -2.3231 -1.6835 -0.6789
 7181SOL     OW22983   0.860   6.724   3.747 -0.2252 -0.1073 -0.0887
 7181SOL    HW122984   0.894   6.794   3.803  1.5759 -1.2492  0.3636
 7181SOL    HW222985   0.777   6.700   3.787 -0.1721  0.7906  0.6114
 7182SOL     OW22986   3.760   3.894   9.864  0.0702  0.0744  0.3429
 7182SOL    HW122987   3.822   3.965   9.850  1.1509 -0.5528  1.7587
 7182SOL    HW222988   3.814   3.821   9.894 -1.3203 -0.5899  1.2978
 7183SOL     OW22989   1.086   4.605   4.394 -0.9952  0.7234 -0.5417
 7183SOL    HW122990   1.056   4.670   4.331 -0.1434  1.9046  0.2201
 7183SOL    HW222991   1.006   4.564   4.427 -1.4295 -0.2820 -2.7260
 7184SOL     OW22992   5.941   2.587   6.804  0.3079  0.0119  0.1140
 7184SOL    HW122993   5.849   2.604   6.781  0.3960  1.8178  0.9099
 7184SOL    HW222994   5.991   2.625   6.732  0.4447 -0.2210  0.0874
 7185SOL     OW22995   4.191   7.825   3.445 -0.2742 -0.6256 -0.0162
 7185SOL    HW122996   4.125   7.823   3.514  1.4214 -0.1658  1.7069
 7185SOL    HW222997   4.236   7.741   3.452  1.2941  0.2520  0.9040
 7186SOL     OW22998   1.725   7.757   5.275 -0.4292 -0.0859  0.0079
 7186SOL    HW122999   1.717   7.852   5.272 -1.1174 -0.1564 -0.5197
 7186SOL    HW223000   1.810   7.739   5.234  0.3730  0.3775  1.4165
 7187SOL     OW23001   7.169   5.890  11.472  0.4763 -0.2859 -0.2055
 7187SOL    HW123002   7.228   5.959  11.502  2.6376 -2.0214 -0.1678
 7187SOL    HW223003   7.171   5.825  11.541  0.4579 -1.4715 -1.2779
 7188SOL     OW23004   1.448   3.549   8.146 -0.4985 -0.3058  0.3764
 7188SOL    HW123005   1.519   3.547   8.211 -0.5086 -0.5430  0.3834
 7188SOL    HW223006   1.491   3.575   8.065 -0.8844  2.4336  0.9472
 7189SOL     OW23007   7.526   0.634   5.533 -0.2943  0.4000  0.0101
 7189SOL    HW123008   7.458   0.607   5.472 -0.8772  0.6427  0.5424
 7189SOL    HW223009   7.594   0.672   5.478 -0.1676 -0.6826 -0.6137
 7190SOL     OW23010   4.092   6.856  11.320  0.1266 -0.7059 -0.0569
 7190SOL    HW123011   4.167   6.830  11.266 -0.5489 -0.1968 -1.2749
 7190SOL    HW223012   4.062   6.774  11.360  2.5017 -0.6732  2.0880
 7191SOL     OW23013   7.427   3.617   6.359 -0.2052  0.1351  0.0780
 7191SOL    HW123014   7.505   3.572   6.392 -0.6335  0.3533  1.4233
 7191SOL    HW223015   7.462   3.694   6.314  0.4228 -0.5129 -0.5816
 7192SOL     OW23016   2.779   0.600  10.245  0.2227 -0.0166 -0.1128
 7192SOL    HW123017   2.726   0.680  10.240  0.2831 -0.0610 -2.4659
 7192SOL    HW223018   2.857   0.620  10.194  0.4666 -1.4010 -0.3159
 7193SOL     OW23019   3.053   5.066   5.299  0.4345  0.5663  0.1128
 7193SOL    HW123020   2.966   5.063   5.339  1.0154  1.1531  1.4592
 7193SOL    HW223021   3.072   5.159   5.289  0.5580  0.4401 -1.0198
 7194SOL     OW23022   6.186   2.105  12.395 -0.2408 -0.4945 -0.2166
 7194SOL    HW123023   6.193   2.080  12.487 -2.5456 -3.2034 -0.6683
 7194SOL    HW223024   6.275   2.097  12.361  0.5406 -0.0120  1.5938
 7195SOL     OW23025   5.891   3.119   8.826  0.4029 -0.0676 -0.3065
 7195SOL    HW123026   5.842   3.153   8.901  0.1269 -0.8176 -0.1398
 7195SOL    HW223027   5.955   3.060   8.865 -1.3551 -2.4196 -0.7812
 7196SOL     OW23028   7.924   6.710   1.830  0.0760 -0.0574  0.5176
 7196SOL    HW123029   8.005   6.660   1.836  0.0269 -1.0116 -3.4711
 7196SOL    HW223030   7.945   6.783   1.771 -1.7740 -0.0682 -0.2492
 7197SOL     OW23031   7.895   7.962   6.686  0.3936 -1.1009 -0.3629
 7197SOL    HW123032   7.930   7.986   6.772 -0.4341 -1.6928  0.1560
 7197SOL    HW223033   7.963   7.909   6.645  0.7360 -0.9289 -0.0196
 7198SOL     OW23034   2.953   6.902   2.612  0.0491 -0.8757 -0.1936
 7198SOL    HW123035   2.962   6.813   2.577  1.9460 -1.5681  1.8572
 7198SOL    HW223036   2.990   6.897   2.700 -0.0404  1.9096  0.0804
 7199SOL     OW23037   5.381   3.604   1.442 -0.1349 -0.0937  0.0207
 7199SOL    HW123038   5.396   3.585   1.535  0.8268  1.4275  0.2026
 7199SOL    HW223039   5.432   3.538   1.395  1.3783  0.6199  0.6072
 7200SOL     OW23040   5.784   4.056   6.796 -0.2356  0.6436 -0.2591
 7200SOL    HW123041   5.832   4.118   6.741  0.1872 -1.0702 -1.9184
 7200SOL    HW223042   5.719   4.110   6.841  1.8568  2.6895  0.4698
 7201SOL     OW23043   7.572   0.027   0.499 -0.2115 -0.4833 -0.3198
 7201SOL    HW123044   7.516   0.097   0.463  0.3392  0.3574  0.4045
 7201SOL    HW223045   7.536   0.010   0.586 -0.2667 -1.0270 -0.4481
 7202SOL     OW23046   7.922   0.272   4.868 -0.1791 -0.3556  0.2600
 7202SOL    HW123047   7.968   0.188   4.872 -0.4455 -0.6972 -2.2589
 7202SOL    HW223048   7.954   0.313   4.788 -1.0401  1.3749  0.7522
 7203SOL     OW23049   4.528   7.685   2.098 -0.3239 -0.1416 -0.2435
 7203SOL    HW123050   4.611   7.722   2.067 -0.4750 -0.3636 -0.9279
 7203SOL    HW223051   4.512   7.729   2.181  1.3928 -1.3957  0.8140
 7204SOL     OW23052   0.239   2.051   0.280 -0.2531  0.1307 -0.1752
 7204SOL    HW123053   0.271   2.101   0.204 -1.4051 -1.7016 -1.9644
 7204SOL    HW223054   0.289   2.086   0.354  0.4767  2.4484 -1.6424
 7205SOL     OW23055   4.014   0.949  12.168 -0.1016 -0.2036 -0.0523
 7205SOL    HW123056   4.095   0.975  12.124 -0.2101  0.3919  0.0838
 7205SOL    HW223057   4.007   0.855  12.154  0.1037 -0.0946 -0.9093
 7206SOL     OW23058   4.759   5.914  10.108 -0.3864 -0.1788 -0.3696
 7206SOL    HW123059   4.791   5.829  10.079 -2.5025 -0.8953 -0.7407
 7206SOL    HW223060   4.837   5.957  10.144  1.0600 -1.6213 -1.5965
 7207SOL     OW23061   5.488   1.691   2.884 -0.1376 -0.0951 -0.1742
 7207SOL    HW123062   5.484   1.760   2.818 -0.2201 -0.7366 -0.8460
 7207SOL    HW223063   5.403   1.694   2.928 -0.0854  0.3288 -0.1039
 7208SOL     OW23064   1.399   5.674   8.959  0.4619 -0.0523 -0.2211
 7208SOL    HW123065   1.416   5.722   8.877  0.1799  0.8805  0.2499
 7208SOL    HW223066   1.449   5.593   8.950  2.2444  1.0057 -0.3943
 7209SOL     OW23067   3.831   0.025   4.007 -0.4402 -0.1061 -0.2750
 7209SOL    HW123068   3.865   0.063   3.926 -0.8322  1.2035  0.1469
 7209SOL    HW223069   3.909   0.015   4.063 -0.5228  1.7134  0.2303
 7210SOL     OW23070   5.328   0.845   4.381  0.1633 -0.6016 -0.6698
 7210SOL    HW123071   5.285   0.929   4.391 -1.1162 -1.1475 -1.3473
 7210SOL    HW223072   5.398   0.861   4.317 -1.5807 -0.5271 -2.6711
 7211SOL     OW23073   7.437   1.110   4.282 -0.3322 -0.1375 -0.4448
 7211SOL    HW123074   7.424   1.165   4.359  2.8620 -0.7134  0.6701
 7211SOL    HW223075   7.396   1.159   4.210 -0.0481  2.3248  0.9605
 7212SOL     OW23076   2.218   3.768  11.799 -0.0088  0.2282 -0.2202
 7212SOL    HW123077   2.249   3.761  11.889  2.0810  0.9648 -0.8259
 7212SOL    HW223078   2.286   3.726  11.747 -0.7174  0.6546 -1.5306
 7213SOL     OW23079   2.170   2.532   1.307 -0.3103 -0.5418 -0.0862
 7213SOL    HW123080   2.164   2.443   1.272 -0.2445 -1.0725  1.2115
 7213SOL    HW223081   2.215   2.522   1.391 -0.4989  0.6893  0.1734
 7214SOL     OW23082   2.850   4.618   6.118 -0.0695  0.2751  0.4687
 7214SOL    HW123083   2.902   4.690   6.152  0.2085 -0.3069  1.3009
 7214SOL    HW223084   2.794   4.658   6.051  0.6534  1.1025  0.3486
 7215SOL     OW23085   3.584   5.898   4.517 -0.2320  0.4497  0.6627
 7215SOL    HW123086   3.656   5.866   4.571 -0.1568 -0.7470 -0.1043
 7215SOL    HW223087   3.509   5.899   4.575 -0.6267 -2.7853  0.3950
 7216SOL     OW23088   6.712   6.899   3.955  0.3843  0.0613 -0.5177
 7216SOL    HW123089   6.664   6.912   3.873  0.2971  0.1069 -0.4587
 7216SOL    HW223090   6.667   6.828   4.000  0.0477  0.4637 -0.2139
 7217SOL     OW23091   5.122   4.281   8.306  0.2422 -0.1876 -0.4169
 7217SOL    HW123092   5.107   4.323   8.221 -1.9197  1.4558  0.6782
 7217SOL    HW223093   5.039   4.239   8.327  0.0224  1.1778  1.7391
 7218SOL     OW23094   4.751   6.181   6.822 -0.2186  0.2274  0.4664
 7218SOL    HW123095   4.770   6.094   6.787 -0.2677  0.5511 -0.3653
 7218SOL    HW223096   4.657   6.191   6.812 -0.3428  0.0419  1.3560
 7219SOL     OW23097   0.312   5.856   0.525 -0.0451  0.7981 -0.0335
 7219SOL    HW123098   0.242   5.907   0.485 -1.2538 -0.2795  0.6339
 7219SOL    HW223099   0.288   5.850   0.617  1.0830  0.6472  0.2638
 7220SOL     OW23100   4.361   1.912   3.338 -0.6536  0.1094  0.1678
 7220SOL    HW123101   4.338   1.999   3.372 -0.1101  0.3283 -0.0154
 7220SOL    HW223102   4.443   1.925   3.291 -0.8462 -0.4007 -0.3305
 7221SOL     OW23103   7.945   7.177   6.026 -0.5484  0.0624 -0.8266
 7221SOL    HW123104   7.931   7.084   6.042  0.0724 -0.1267 -1.3235
 7221SOL    HW223105   7.996   7.207   6.101  0.9448 -0.4525 -1.5917
 7222SOL     OW23106   2.127   4.218  11.634 -0.4128  0.0862 -0.2472
 7222SOL    HW123107   2.142   4.283  11.565 -1.1861 -0.2983 -0.7892
 7222SOL    HW223108   2.196   4.154  11.622  1.0397  1.3440  0.9803
 7223SOL     OW23109   0.459   7.301   7.032 -0.0790 -0.3096 -0.1904
 7223SOL    HW123110   0.467   7.371   6.967  0.1240  1.0237  1.1991
 7223SOL    HW223111   0.538   7.248   7.021 -0.7973 -1.0867 -2.0636
 7224SOL     OW23112   2.978   0.868   0.169 -0.7705  0.4584  0.1795
 7224SOL    HW123113   3.012   0.918   0.095  0.0362 -0.1212  0.1395
 7224SOL    HW223114   2.933   0.933   0.223 -1.1757  0.9219 -0.6981
 7225SOL     OW23115   6.463   7.001   6.667 -0.1022  0.1121 -0.2386
 7225SOL    HW123116   6.483   6.908   6.681  1.0408  0.2094 -1.1032
 7225SOL    HW223117   6.414   7.003   6.585  0.5900  0.3332 -0.6571
 7226SOL     OW23118   6.360   3.022   1.542  0.1439  0.0229 -0.1842
 7226SOL    HW123119   6.365   3.117   1.550 -2.0116  0.1899 -0.3884
 7226SOL    HW223120   6.398   3.003   1.457  0.6670  0.6789 -0.1058
 7227SOL     OW23121   0.433   1.194  10.336 -0.0123  0.1052 -0.4116
 7227SOL    HW123122   0.411   1.111  10.379 -1.4622 -0.1069 -1.5052
 7227SOL    HW223123   0.354   1.247  10.343  1.2073  1.8546  1.1897
 7228SOL     OW23124   2.023   2.995   9.215  0.1729 -0.2252 -0.4193
 7228SOL    HW123125   2.098   2.936   9.224  1.2650  0.3322 -4.0877
 7228SOL    HW223126   2.062   3.083   9.219 -0.5620  0.1140 -0.6055
 7229SOL     OW23127   1.897   2.658   1.282 -0.6827 -0.0327 -0.5289
 7229SOL    HW123128   1.958   2.728   1.262  0.7787 -0.7105  1.2729
 7229SOL    HW223129   1.953   2.583   1.304 -2.1828 -1.3593 -1.0372
 7230SOL     OW23130   0.366   5.355   5.856  0.5415 -0.3427 -0.4255
 7230SOL    HW123131   0.442   5.402   5.890  0.7743  0.8640 -2.4131
 7230SOL    HW223132   0.396   5.321   5.771 -0.7453 -0.9993 -0.6415
 7231SOL     OW23133   0.995   7.795   2.576  0.0570 -0.5808  0.0338
 7231SOL    HW123134   1.047   7.832   2.505 -1.4868  1.1337 -0.2575
 7231SOL    HW223135   1.020   7.702   2.578 -0.5349 -0.9168 -3.3800
 7232SOL     OW23136   0.205   3.180   7.842  0.1297  0.0084  0.3347
 7232SOL    HW123137   0.273   3.147   7.784 -1.3854  0.3556 -1.7508
 7232SOL    HW223138   0.244   3.175   7.929  3.3510  1.5790 -0.8505
 7233SOL     OW23139   0.836   2.572   5.273  0.1811 -0.1540 -1.0944
 7233SOL    HW123140   0.898   2.626   5.322 -1.6421  0.9303  0.1765
 7233SOL    HW223141   0.864   2.580   5.181  0.3300  2.5737 -0.9000
 7234SOL     OW23142   3.442   3.480   9.523 -1.0309 -0.3556  0.1596
 7234SOL    HW123143   3.353   3.475   9.489 -1.6387 -2.8294  1.8290
 7234SOL    HW223144   3.484   3.400   9.491  0.1752  0.1412  0.4556
 7235SOL     OW23145   3.592   4.165  10.492  0.4535 -0.8943 -0.4910
 7235SOL    HW123146   3.530   4.127  10.554  0.0609  0.8738  0.2529
 7235SOL    HW223147   3.545   4.166  10.409  0.3851 -1.7681 -0.4746
 7236SOL     OW23148   6.991   0.998   2.185  0.2431 -0.5320  0.8370
 7236SOL    HW123149   7.032   0.970   2.103  0.7313 -0.8506  1.1815
 7236SOL    HW223150   6.974   1.092   2.172  2.4789 -0.0082  1.2180
 7237SOL     OW23151   1.406   7.385   4.683 -0.4285 -0.4681  0.7041
 7237SOL    HW123152   1.436   7.363   4.771 -0.3858 -0.4615  0.6912
 7237SOL    HW223153   1.366   7.472   4.692  1.3776  0.4591  0.3260
 7238SOL     OW23154   4.634   5.120   7.341  0.1450  0.3155 -0.3490
 7238SOL    HW123155   4.538   5.111   7.342 -0.0305  0.1903  4.5092
 7238SOL    HW223156   4.666   5.031   7.329 -0.1745  0.4593 -2.9038
 7239SOL     OW23157   5.219   7.340   0.252 -0.0261 -0.1102 -0.3686
 7239SOL    HW123158   5.141   7.389   0.227 -0.5557  0.2195  1.7659
 7239SOL    HW223159   5.200   7.250   0.226 -0.7044  0.1368 -0.7507
 7240SOL     OW23160   4.168   4.353   6.774 -0.1313  0.2394 -0.2287
 7240SOL    HW123161   4.234   4.422   6.776 -0.7878  0.8532  1.2420
 7240SOL    HW223162   4.096   4.387   6.826 -1.3799 -0.6720 -1.2884
 7241SOL     OW23163   3.456   2.068   9.932  0.2761  0.0379  0.0428
 7241SOL    HW123164   3.424   2.024  10.011  0.8803  0.0923  0.3272
 7241SOL    HW223165   3.397   2.039   9.863 -1.1278  1.0706  0.7573
 7242SOL     OW23166   2.064   1.956  11.580  0.0671 -0.4070  0.3558
 7242SOL    HW123167   2.135   1.984  11.638  0.2660  1.2559 -0.6081
 7242SOL    HW223168   2.083   1.999  11.496 -1.1894 -1.2614 -0.4073
 7243SOL     OW23169   7.683   5.954   2.192 -0.6571 -0.2969  0.2227
 7243SOL    HW123170   7.610   5.907   2.152  0.1535 -2.6102  1.2931
 7243SOL    HW223171   7.761   5.912   2.157  0.1078 -0.1172  1.6328
 7244SOL     OW23172   3.298   2.354   6.670 -0.0802 -0.9029 -0.2685
 7244SOL    HW123173   3.355   2.337   6.595  0.3506 -0.3150 -0.0774
 7244SOL    HW223174   3.255   2.270   6.686  0.8786 -1.4092 -0.2875
 7245SOL     OW23175   4.065   5.339  10.682 -0.1553 -0.3048  0.3640
 7245SOL    HW123176   3.998   5.388  10.730  0.0693  0.1633  0.2001
 7245SOL    HW223177   4.049   5.361  10.590 -0.3337 -0.8880  0.2490
 7246SOL     OW23178   7.437   7.563   0.446 -0.1611  0.3188  0.2244
 7246SOL    HW123179   7.443   7.577   0.540  0.8791  0.9080  0.0915
 7246SOL    HW223180   7.443   7.651   0.408 -2.5144  0.2819 -0.3454
 7247SOL     OW23181   6.485   3.953   8.495 -0.1029  0.0058  0.4279
 7247SOL    HW123182   6.402   3.995   8.473 -0.4128 -0.9024 -0.1810
 7247SOL    HW223183   6.546   3.982   8.427  0.4257  1.6151  1.5229
 7248SOL     OW23184   2.440   2.501   2.745 -0.3958 -0.4205  0.7694
 7248SOL    HW123185   2.481   2.512   2.832  2.5423  0.2010 -0.5693
 7248SOL    HW223186   2.463   2.581   2.698 -1.7086 -0.8585 -0.6848
 7249SOL     OW23187   5.492   2.474   7.708 -0.0458  0.2381 -0.3479
 7249SOL    HW123188   5.494   2.390   7.755 -1.5631 -0.6094 -1.6885
 7249SOL    HW223189   5.549   2.531   7.759  2.6000 -2.1032 -0.3979
 7250SOL     OW23190   1.191   0.209   2.035  0.4094  0.3297  0.6059
 7250SOL    HW123191   1.113   0.262   2.019  0.6111  0.0546 -1.6791
 7250SOL    HW223192   1.214   0.174   1.948  2.4752 -0.4219  1.3971
 7251SOL     OW23193   5.696   2.641   2.266 -0.0293  0.0286 -0.3105
 7251SOL    HW123194   5.621   2.621   2.210 -0.0938  0.0366 -0.2285
 7251SOL    HW223195   5.706   2.563   2.321  0.0738 -0.0056 -0.3775
 7252SOL     OW23196   4.290   1.339  10.267  0.3600 -0.1435 -1.1265
 7252SOL    HW123197   4.244   1.412  10.309 -0.0302 -0.0876 -1.6482
 7252SOL    HW223198   4.378   1.342  10.304  0.4678  0.8430 -1.4378
 7253SOL     OW23199   6.207   3.601  12.210 -0.1005 -0.2016  0.6467
 7253SOL    HW123200   6.250   3.687  12.204 -1.5505  0.5327  0.2875
 7253SOL    HW223201   6.154   3.607  12.290  1.0351 -1.3909  1.5400
 7254SOL     OW23202   7.037   5.967   0.578 -0.4572 -0.0779 -0.5246
 7254SOL    HW123203   6.941   5.967   0.574 -0.5367 -0.8680  0.9234
 7254SOL    HW223204   7.057   6.007   0.662  0.4668 -0.7306 -0.4272
 7255SOL     OW23205   1.454   0.276   6.089 -0.6590  0.2521  0.2626
 7255SOL    HW123206   1.471   0.364   6.057  0.1704 -0.0427 -0.1256
 7255SOL    HW223207   1.358   0.271   6.096 -0.6991  1.2858  0.6172
 7256SOL     OW23208   2.966   2.247  11.582  0.1651  0.2057 -0.1647
 7256SOL    HW123209   2.921   2.202  11.653  0.6958  1.8509  1.2956
 7256SOL    HW223210   2.902   2.309  11.548  0.1659 -0.0275 -0.6036
 7257SOL     OW23211   3.728   4.840   6.927 -0.5363 -0.3214  0.0685
 7257SOL    HW123212   3.816   4.801   6.933  0.2443  1.3206 -0.1733
 7257SOL    HW223213   3.676   4.791   6.991  1.3507  0.6975  2.5775
 7258SOL     OW23214   0.795   0.512   1.149  0.1663  0.0832  0.2279
 7258SOL    HW123215   0.740   0.568   1.202  0.4088  0.5779 -0.0369
 7258SOL    HW223216   0.885   0.540   1.168  0.2155  3.0428 -3.3352
 7259SOL     OW23217   5.000   6.665  11.865 -0.1359  0.1494 -0.0614
 7259SOL    HW123218   5.060   6.593  11.847 -0.1031 -0.6435  2.8495
 7259SOL    HW223219   5.050   6.744  11.841  1.4229 -0.5822  0.6463
 7260SOL     OW23220   0.850   3.303   9.631  0.2188  0.5644 -0.1570
 7260SOL    HW123221   0.758   3.320   9.650 -0.5340 -1.8114 -1.2826
 7260SOL    HW223222   0.872   3.225   9.682  1.2359  0.3793 -0.8381
 7261SOL     OW23223   3.835   4.424   4.855 -0.7600  0.0355 -0.1630
 7261SOL    HW123224   3.812   4.500   4.801 -0.2537  0.6167  0.4439
 7261SOL    HW223225   3.859   4.460   4.940 -0.8547 -0.8307  0.2425
 7262SOL     OW23226   0.145   1.159  11.538 -0.3388  0.2163 -0.2637
 7262SOL    HW123227   0.089   1.155  11.615 -0.1630 -0.8421 -0.1704
 7262SOL    HW223228   0.176   1.249  11.534 -0.9427  0.4564  0.4781
 7263SOL     OW23229   0.785   5.224   1.121  0.1645 -0.0027 -0.5331
 7263SOL    HW123230   0.873   5.261   1.132  0.0346  0.1510  0.0125
 7263SOL    HW223231   0.736   5.257   1.196  0.6133 -2.9383  1.2471
 7264SOL     OW23232   7.923   4.890   9.996 -0.0209 -0.3274 -0.0144
 7264SOL    HW123233   7.885   4.933   9.919  0.0472  1.4597  0.8865
 7264SOL    HW223234   7.851   4.839  10.034 -0.1940 -0.7949 -0.9479
 7265SOL     OW23235   0.396   7.639   9.256 -0.0747  0.4873  0.2054
 7265SOL    HW123236   0.421   7.696   9.328  0.4188 -0.3248  0.6853
 7265SOL    HW223237   0.353   7.564   9.298 -1.5942  0.9376 -0.4774
 7266SOL     OW23238   0.824   3.727   4.881  0.6724 -0.4205  0.0486
 7266SOL    HW123239   0.732   3.742   4.859 -0.0406 -0.9689  2.3098
 7266SOL    HW223240   0.848   3.803   4.935  1.2971 -0.6457  0.0945
 7267SOL     OW23241   2.258   5.204   7.214 -0.0706 -0.2024  0.0780
 7267SOL    HW123242   2.313   5.261   7.160  2.1939 -2.0182  0.3102
 7267SOL    HW223243   2.219   5.143   7.151  1.9377 -1.8146  0.2983
 7268SOL     OW23244   5.801   4.070   0.448  0.0944 -0.4139 -0.0840
 7268SOL    HW123245   5.820   4.018   0.526  0.1368 -0.3844 -0.0747
 7268SOL    HW223246   5.736   4.134   0.478  1.1776  0.5441  0.2998
 7269SOL     OW23247   2.034   4.653   4.748 -0.1875 -0.1083  0.2846
 7269SOL    HW123248   2.087   4.677   4.671  1.2575 -1.5760  0.7703
 7269SOL    HW223249   1.944   4.659   4.717  0.3221  0.2242 -1.2591
 7270SOL     OW23250   2.913   1.058  10.683 -0.0796 -0.3385 -0.7475
 7270SOL    HW123251   2.864   1.095  10.756  1.5594 -2.9205  1.8644
 7270SOL    HW223252   2.870   0.974  10.666  1.1979 -0.9693 -0.9184
 7271SOL     OW23253   6.381   0.989   0.722 -0.4139  0.3131 -0.3543
 7271SOL    HW123254   6.311   0.924   0.713 -1.0262  0.9737 -0.4011
 7271SOL    HW223255   6.384   1.009   0.816  0.0080 -0.0224 -0.2887
 7272SOL     OW23256   2.321   5.594   8.776  0.1561  0.3371  0.2403
 7272SOL    HW123257   2.333   5.681   8.737 -2.3182  0.2999 -0.7472
 7272SOL    HW223258   2.256   5.607   8.845 -0.1717 -0.6968  0.1431
 7273SOL     OW23259   3.304   2.496   5.361  0.3212  0.4571 -0.0732
 7273SOL    HW123260   3.334   2.581   5.328  0.9570  0.2878  0.0523
 7273SOL    HW223261   3.362   2.433   5.320 -0.4192  0.0392 -0.4889
 7274SOL     OW23262   6.320   2.655   3.960  1.0608  0.1145  0.0611
 7274SOL    HW123263   6.331   2.750   3.963  1.1902  0.0864  0.5487
 7274SOL    HW223264   6.391   2.625   3.902  1.6700  0.2260  0.7282
 7275SOL     OW23265   6.213   2.637  10.736  0.0847  0.3630 -0.1037
 7275SOL    HW123266   6.276   2.598  10.677  1.0007  0.9965  0.4305
 7275SOL    HW223267   6.154   2.687  10.679  0.2013 -0.0349 -0.5796
 7276SOL     OW23268   5.878   3.215   2.407  0.1564 -0.4005 -0.0879
 7276SOL    HW123269   5.907   3.303   2.432 -0.3987 -0.2912  0.1923
 7276SOL    HW223270   5.924   3.197   2.326  0.0042  0.3012 -0.3406
 7277SOL     OW23271   6.511   3.520   1.168 -0.1598  0.4618  0.4811
 7277SOL    HW123272   6.505   3.615   1.156 -0.8189  0.6162  1.9250
 7277SOL    HW223273   6.452   3.501   1.241  0.5488 -0.9591  0.7074
 7278SOL     OW23274   6.925   2.555   9.063 -0.2269  0.4357  0.0475
 7278SOL    HW123275   6.885   2.605   9.134 -2.0515  0.5362 -0.9842
 7278SOL    HW223276   6.947   2.471   9.103 -1.0954  0.5352  0.7757
 7279SOL     OW23277   0.977   1.016   6.721 -0.4433  0.0511 -0.8526
 7279SOL    HW123278   0.920   0.973   6.785  0.3355  0.3540  0.0621
 7279SOL    HW223279   1.062   1.023   6.764 -0.2793  1.6078 -1.3450
 7280SOL     OW23280   1.725   4.777  12.268  0.1141 -0.1515 -0.3611
 7280SOL    HW123281   1.661   4.760  12.198  1.6049 -0.1991 -1.7755
 7280SOL    HW223282   1.687   4.849  12.318 -2.6834 -2.3596  1.0204
 7281SOL     OW23283   3.111   1.669  11.481  0.3064 -0.4952 -0.0260
 7281SOL    HW123284   3.162   1.706  11.553  1.4453  0.8642 -1.4461
 7281SOL    HW223285   3.169   1.605  11.441  1.0130  1.0940 -1.6835
 7282SOL     OW23286   0.338   0.610   1.462  0.5888 -0.1857 -0.1808
 7282SOL    HW123287   0.311   0.655   1.542 -2.7554 -0.3847 -1.0428
 7282SOL    HW223288   0.380   0.678   1.409 -1.8153  1.3568 -0.2866
 7283SOL     OW23289   3.335   3.284   5.822 -0.0668 -0.5098 -0.7786
 7283SOL    HW123290   3.299   3.229   5.891 -0.3222 -0.5771 -0.9644
 7283SOL    HW223291   3.414   3.323   5.861  0.9711 -2.1532 -1.1226
 7284SOL     OW23292   6.134   3.820  11.550  0.4856  0.3726  0.1112
 7284SOL    HW123293   6.072   3.822  11.624 -2.4108 -1.8376 -2.0434
 7284SOL    HW223294   6.121   3.905  11.508  1.8722  1.4949  1.7907
 7285SOL     OW23295   6.344   1.535   5.259  0.2477  0.4744 -0.3245
 7285SOL    HW123296   6.414   1.590   5.223  0.9668 -0.8319 -1.0144
 7285SOL    HW223297   6.364   1.529   5.352  0.0742  1.4734 -0.2065
 7286SOL     OW23298   3.678   4.410   1.635  0.2239  0.2845 -0.6081
 7286SOL    HW123299   3.598   4.397   1.686  0.4441 -0.6161 -0.4739
 7286SOL    HW223300   3.648   4.412   1.544  0.0213  0.1392 -0.5460
 7287SOL     OW23301   4.285   6.139   9.430  0.0443  0.7738  0.2999
 7287SOL    HW123302   4.374   6.127   9.463 -0.3202 -2.8730  0.3408
 7287SOL    HW223303   4.293   6.124   9.335 -0.5555  0.1209  0.3480
 7288SOL     OW23304   6.583   7.454   1.396 -0.1760  0.2254 -0.1910
 7288SOL    HW123305   6.492   7.442   1.421 -0.9869  0.1927 -2.7840
 7288SOL    HW223306   6.618   7.365   1.389  0.5540  0.2683  2.2232
 7289SOL     OW23307   0.833   4.551   4.112 -0.4294 -0.4576  0.1525
 7289SOL    HW123308   0.878   4.474   4.077  0.3516 -0.5314  1.2536
 7289SOL    HW223309   0.809   4.602   4.035  1.8923 -0.2367 -0.5235
 7290SOL     OW23310   3.352   7.100  12.060 -0.1866  0.3570  0.1265
 7290SOL    HW123311   3.320   7.178  12.104  1.0168 -0.1302  1.9645
 7290SOL    HW223312   3.418   7.064  12.119  1.0953 -0.6834 -1.8163
 7291SOL     OW23313   7.900   3.803   2.846  0.4227  0.5001 -0.3880
 7291SOL    HW123314   7.852   3.786   2.765 -0.0894 -0.3582  0.0777
 7291SOL    HW223315   7.862   3.742   2.910  1.8733  0.0738  0.1003
 7292SOL     OW23316   1.202   6.694   5.586 -0.2723  0.1620 -0.0626
 7292SOL    HW123317   1.213   6.737   5.671 -2.2831 -0.6936  0.6774
 7292SOL    HW223318   1.288   6.656   5.568  0.1386  0.1454  1.7159
 7293SOL     OW23319   1.003   4.048  12.216  0.2452 -0.4791 -0.4092
 7293SOL    HW123320   0.991   4.097  12.297  1.5139 -0.3399 -0.2839
 7293SOL    HW223321   1.007   3.956  12.243  2.1871 -0.3491 -0.0762
 7294SOL     OW23322   0.713   7.650  10.105 -0.6565 -0.4901 -0.5703
 7294SOL    HW123323   0.700   7.714  10.174 -1.4266 -1.0197 -0.2138
 7294SOL    HW223324   0.687   7.696  10.025 -3.4777 -1.0216 -0.0637
 7295SOL     OW23325   7.919   3.020  12.077 -0.3699  0.1834 -0.1013
 7295SOL    HW123326   7.900   3.082  12.147  2.2138  1.6855 -0.6295
 7295SOL    HW223327   8.001   2.978  12.103 -1.5496 -2.4196 -0.2231
 7296SOL     OW23328   6.490   4.252   6.926 -0.2578  0.2510 -0.6021
 7296SOL    HW123329   6.559   4.288   6.871  0.2711 -0.1510 -0.2141
 7296SOL    HW223330   6.408   4.278   6.883  0.1459 -0.3439 -1.7488
 7297SOL     OW23331   4.856   6.551   3.978 -0.0011  0.8217  0.8192
 7297SOL    HW123332   4.919   6.575   3.910  1.0653 -0.6739  1.2146
 7297SOL    HW223333   4.863   6.621   4.043  1.6603  0.4538  1.0907
 7298SOL     OW23334   7.061   2.036  10.771 -0.2550  0.1940 -0.2255
 7298SOL    HW123335   7.057   1.941  10.786  2.5629 -0.6889 -3.5767
 7298SOL    HW223336   7.147   2.062  10.804 -1.1263  1.7397  0.9559
 7299SOL     OW23337   5.912   6.155  11.803  0.0300  0.4341  0.3037
 7299SOL    HW123338   5.898   6.123  11.892 -0.7307  0.2627  0.1302
 7299SOL    HW223339   5.829   6.196  11.779  0.2672  0.5765 -0.2881
 7300SOL     OW23340   0.134   7.498   5.853 -0.1327 -0.2882 -0.1871
 7300SOL    HW123341   0.093   7.570   5.805  0.2950 -0.1123 -0.3006
 7300SOL    HW223342   0.064   7.436   5.868  0.0838 -1.3325 -2.8451
 7301SOL     OW23343   7.698   2.729   7.555  0.0193  0.0416  0.1419
 7301SOL    HW123344   7.782   2.685   7.564 -0.1820 -0.4282 -0.2374
 7301SOL    HW223345   7.700   2.798   7.622  0.6158 -0.0972  0.2741
 7302SOL     OW23346   4.243   5.106   8.603 -0.0265  0.3753 -0.2783
 7302SOL    HW123347   4.272   5.150   8.683  1.3583 -2.5438  0.9624
 7302SOL    HW223348   4.166   5.055   8.630  0.3887 -0.5584 -0.8002
 7303SOL     OW23349   5.164   3.880   4.219 -0.0525  0.0331  0.5444
 7303SOL    HW123350   5.209   3.841   4.295  0.9512  0.5687  0.2484
 7303SOL    HW223351   5.213   3.848   4.143 -0.3308  0.4346  0.1920
 7304SOL     OW23352   7.346   3.710   9.224  0.4726  0.8289  0.1473
 7304SOL    HW123353   7.290   3.717   9.146 -0.0577 -1.3642  0.2798
 7304SOL    HW223354   7.402   3.635   9.207  0.3671  0.3185  1.8636
 7305SOL     OW23355   7.409   7.221   4.299  0.1864 -0.0681  0.3915
 7305SOL    HW123356   7.400   7.149   4.362  1.0441 -0.3162  0.2502
 7305SOL    HW223357   7.337   7.208   4.238 -0.4160 -0.0642  1.0855
 7306SOL     OW23358   6.306   5.543   7.621  0.4886 -0.0383  0.3062
 7306SOL    HW123359   6.380   5.588   7.581  0.9775  1.4913  2.7199
 7306SOL    HW223360   6.275   5.603   7.688 -0.0166 -2.5337  2.4684
 7307SOL     OW23361   6.874   0.339   4.036  0.4763  0.0143 -0.5535
 7307SOL    HW123362   6.909   0.352   3.948  1.2076 -2.4302 -0.7008
 7307SOL    HW223363   6.832   0.253   4.033 -2.1977  1.1529  0.7098
 7308SOL     OW23364   1.439   0.476   0.606  0.2114 -0.2692  0.1801
 7308SOL    HW123365   1.526   0.506   0.630 -0.3125  2.5912 -1.0964
 7308SOL    HW223366   1.454   0.398   0.553  1.9573  0.0447  0.1694
 7309SOL     OW23367   6.521   2.943   4.352 -0.0051  0.1626 -0.3274
 7309SOL    HW123368   6.524   2.854   4.387 -0.2828  0.0751 -0.5210
 7309SOL    HW223369   6.512   2.931   4.257  0.9846  0.3930 -0.4665
 7310SOL     OW23370   0.801   2.901  11.571  0.2214  0.6394 -0.9438
 7310SOL    HW123371   0.864   2.842  11.529  1.8453  0.2056  1.8751
 7310SOL    HW223372   0.853   2.975  11.602 -0.3649 -0.0847  2.1355
 7311SOL     OW23373   2.606   4.426   1.713 -0.1689 -0.0129  0.1769
 7311SOL    HW123374   2.585   4.360   1.779 -1.0913 -0.1089 -0.1969
 7311SOL    HW223375   2.638   4.376   1.638  0.3563  0.0579  0.3519
 7312SOL     OW23376   5.180   1.873   2.632  0.7625 -0.1943 -0.0422
 7312SOL    HW123377   5.152   1.810   2.566 -0.0765 -0.8663  0.9344
 7312SOL    HW223378   5.102   1.886   2.687  1.9696 -1.1380  1.9827
 7313SOL     OW23379   1.920   2.892   5.233  0.1187  0.1490 -0.6404
 7313SOL    HW123380   1.958   2.977   5.213  1.2427 -0.1243  0.1944
 7313SOL    HW223381   1.970   2.830   5.179  0.5283 -0.1610  0.0771
 7314SOL     OW23382   4.811   6.212  10.004  1.0466  0.1662  0.2817
 7314SOL    HW123383   4.804   6.166  10.087  2.0558  1.6861  1.2655
 7314SOL    HW223384   4.892   6.262  10.011  0.7643  0.9122 -1.3160
 7315SOL     OW23385   3.871   0.597   5.549  0.3903 -0.0155  0.1724
 7315SOL    HW123386   3.799   0.633   5.600 -0.0903 -0.6600 -0.0414
 7315SOL    HW223387   3.950   0.633   5.590 -0.0004 -0.1888  1.1005
 7316SOL     OW23388   3.615   5.225   4.198 -0.4140 -0.1799  0.4988
 7316SOL    HW123389   3.610   5.252   4.289 -1.1223 -0.6847  0.6189
 7316SOL    HW223390   3.699   5.258   4.167 -0.0674 -0.2076  1.3999
 7317SOL     OW23391   0.237   7.862   1.926 -0.7911 -0.0379  0.4292
 7317SOL    HW123392   0.290   7.845   2.004  1.3113  0.0730 -0.9231
 7317SOL    HW223393   0.228   7.958   1.924  0.7853  0.1133 -0.4646
 7318SOL     OW23394   5.165   5.589  11.926  0.2442  0.3814  0.0852
 7318SOL    HW123395   5.241   5.610  11.980  1.1047  0.0903 -0.9808
 7318SOL    HW223396   5.201   5.566  11.841 -0.9568 -0.8000 -0.1546
 7319SOL     OW23397   1.259   3.433   7.562 -0.4046 -0.2971  0.0715
 7319SOL    HW123398   1.178   3.408   7.517 -1.0406 -0.3906  1.2291
 7319SOL    HW223399   1.257   3.383   7.643 -0.1612  1.1880  1.0141
 7320SOL     OW23400   7.070   3.057  12.140  0.0221 -0.3675  0.2119
 7320SOL    HW123401   7.033   2.978  12.102  0.0137 -1.2475  1.9783
 7320SOL    HW223402   7.164   3.041  12.143  0.2404  0.4520 -1.0402
 7321SOL     OW23403   5.200   3.256   5.547 -0.3278 -0.6076  0.3342
 7321SOL    HW123404   5.191   3.171   5.590 -1.4259 -0.8486 -0.3189
 7321SOL    HW223405   5.277   3.247   5.492  0.1237 -0.8524  1.0031
 7322SOL     OW23406   0.448   6.963   1.115 -0.0528 -0.1485 -0.0858
 7322SOL    HW123407   0.383   6.954   1.184  1.1416 -3.8561  0.8186
 7322SOL    HW223408   0.400   6.938   1.035 -0.2225 -1.1159  0.2964
 7323SOL     OW23409   5.343   2.113   8.499  0.5558  0.2472  0.5966
 7323SOL    HW123410   5.275   2.061   8.456  0.5681 -0.7400  1.7087
 7323SOL    HW223411   5.421   2.057   8.496  1.0658  0.9694  0.1913
 7324SOL     OW23412   6.540   2.982   0.550  0.2418  0.2258  0.2198
 7324SOL    HW123413   6.474   2.914   0.533 -1.2488  1.4966  0.6898
 7324SOL    HW223414   6.588   2.989   0.467 -0.5621 -0.3690 -0.3144
 7325SOL     OW23415   2.047   2.371  10.015  0.1156  0.2904 -0.0327
 7325SOL    HW123416   1.986   2.383  10.088  0.3615 -0.0338  0.2277
 7325SOL    HW223417   2.050   2.457   9.973 -0.4592  0.3342 -0.0026
 7326SOL     OW23418   1.063   3.214   5.632  0.8557 -0.4758 -0.1434
 7326SOL    HW123419   1.120   3.144   5.603  0.3477 -1.0484  0.2121
 7326SOL    HW223420   0.982   3.202   5.582  0.4772 -0.6317  0.4915
 7327SOL     OW23421   7.924   1.655   7.866  0.1721 -0.4977  0.8014
 7327SOL    HW123422   7.840   1.655   7.911 -0.7624  1.2309 -0.8233
 7327SOL    HW223423   7.906   1.613   7.781 -0.6009  4.5204 -1.8946
 7328SOL     OW23424   5.675   2.620   6.729 -0.1815 -0.0736 -0.2683
 7328SOL    HW123425   5.632   2.678   6.666  1.8958  0.1527 -1.5540
 7328SOL    HW223426   5.646   2.532   6.705 -0.7939  0.1611 -0.3973
 7329SOL     OW23427   2.611   7.297   7.880  0.3413  0.3313  0.3283
 7329SOL    HW123428   2.530   7.348   7.880 -0.8831 -1.5305  0.9588
 7329SOL    HW223429   2.583   7.206   7.877  2.4512 -0.3637 -0.4581
 7330SOL     OW23430   5.558   5.007   7.315 -0.0176  0.3518 -0.0748
 7330SOL    HW123431   5.645   5.004   7.276 -0.2561  0.3814 -0.6211
 7330SOL    HW223432   5.540   4.917   7.342 -0.2967  0.1016 -1.0473
 7331SOL     OW23433   0.270   1.906   9.451 -0.0322  0.1826 -0.2407
 7331SOL    HW123434   0.287   1.997   9.427  1.6416  0.2985  1.2051
 7331SOL    HW223435   0.311   1.855   9.382 -1.2712  0.4699 -1.2456
 7332SOL     OW23436   2.607   0.179   6.915  0.4430  0.8708 -0.2600
 7332SOL    HW123437   2.659   0.099   6.925  0.3142  0.7231 -0.7266
 7332SOL    HW223438   2.555   0.183   6.995 -1.0924 -0.6715 -1.0926
 7333SOL     OW23439   3.911   7.804   7.768 -0.2680  0.7357  0.0483
 7333SOL    HW123440   3.965   7.882   7.781  0.3381  0.6440 -1.6808
 7333SOL    HW223441   3.862   7.821   7.688 -2.1774  0.4223  1.0876
 7334SOL     OW23442   3.544   6.817   2.052  0.8308  0.0784  0.4169
 7334SOL    HW123443   3.605   6.783   2.118  0.2927 -0.0031  0.8852
 7334SOL    HW223444   3.459   6.782   2.078  0.3000  1.5347  0.7361
 7335SOL     OW23445   3.831   1.682  11.214 -0.5405 -0.5701 -0.5107
 7335SOL    HW123446   3.832   1.762  11.161 -0.0087 -0.7800 -0.8271
 7335SOL    HW223447   3.922   1.653  11.216 -0.2765  0.2548  1.7865
 7336SOL     OW23448   4.238   5.038   5.390 -0.3393 -0.4713  0.1896
 7336SOL    HW123449   4.210   5.004   5.305 -1.0828  1.8557 -0.5627
 7336SOL    HW223450   4.198   4.979   5.454 -1.4447 -1.0871 -1.0292
 7337SOL     OW23451   2.103   0.277   6.376 -0.3233 -0.2654 -0.1632
 7337SOL    HW123452   2.166   0.210   6.349  0.7557  1.1387 -1.1952
 7337SOL    HW223453   2.146   0.323   6.448 -0.3596  0.4220 -0.5822
 7338SOL     OW23454   4.486   1.712   3.645  0.4241 -0.5874 -0.1667
 7338SOL    HW123455   4.485   1.626   3.686 -0.1333 -0.1754  0.7045
 7338SOL    HW223456   4.474   1.695   3.552  2.8031 -1.6165 -0.3414
 7339SOL     OW23457   1.537   1.718   9.240  0.3822  0.5375 -0.1379
 7339SOL    HW123458   1.486   1.666   9.178 -0.6332  0.5813  0.6296
 7339SOL    HW223459   1.498   1.700   9.325  1.5202  0.7585  0.4558
 7340SOL     OW23460   7.004   4.090   7.073  0.0968 -0.4642 -0.3042
 7340SOL    HW123461   7.063   4.020   7.044  0.4133  0.2026 -1.3557
 7340SOL    HW223462   6.931   4.086   7.011 -0.0655 -0.1103 -0.1373
 7341SOL     OW23463   4.311   7.543   1.982 -0.0755  0.3261  0.5528
 7341SOL    HW123464   4.326   7.448   1.983 -1.8879 -0.0016  1.3049
 7341SOL    HW223465   4.384   7.579   2.032  1.2338 -0.5396 -0.6622
 7342SOL     OW23466   7.022   6.550   3.127  0.0897 -0.1801 -0.0398
 7342SOL    HW123467   7.016   6.644   3.144  2.0286 -0.2385  1.1368
 7342SOL    HW223468   7.098   6.540   3.070 -0.9003 -0.9487 -1.3000
 7343SOL     OW23469   4.823   0.704   3.950  0.0575  0.2644  0.5490
 7343SOL    HW123470   4.775   0.700   3.867  0.0954  0.7686  0.5030
 7343SOL    HW223471   4.871   0.787   3.946  1.6128 -0.6115  0.2074
 7344SOL     OW23472   1.330   7.550   5.087 -0.0587 -0.1287  0.3145
 7344SOL    HW123473   1.276   7.626   5.063 -0.4545 -0.5047  0.0048
 7344SOL    HW223474   1.291   7.477   5.039  1.3357 -0.2400 -0.6849
 7345SOL     OW23475   4.586   3.492   6.215  0.1306 -0.1018 -0.5769
 7345SOL    HW123476   4.639   3.462   6.288 -0.7779  1.2824  0.7157
 7345SOL    HW223477   4.646   3.546   6.163  0.7495 -1.0006 -0.8315
 7346SOL     OW23478   5.083   4.461   3.790 -0.2832  0.0006 -0.0191
 7346SOL    HW123479   5.087   4.503   3.876  3.6085  0.2687 -0.1935
 7346SOL    HW223480   4.999   4.490   3.754 -1.5031  0.8250  3.1652
 7347SOL     OW23481   1.796   1.875   0.332 -0.2312 -0.1136 -0.1027
 7347SOL    HW123482   1.731   1.868   0.262  1.2234 -0.9418 -1.4485
 7347SOL    HW223483   1.873   1.831   0.297  0.3220 -1.2671  2.3487
 7348SOL     OW23484   5.940   4.471   3.777  0.0860  0.0302  0.0510
 7348SOL    HW123485   5.934   4.449   3.871  1.4686 -0.0850  0.1314
 7348SOL    HW223486   5.884   4.406   3.734  0.5439 -0.8047  0.6857
 7349SOL     OW23487   2.036   6.325  11.623 -0.6663 -0.2843  0.0855
 7349SOL    HW123488   2.055   6.352  11.713 -0.0952 -0.1553 -0.0691
 7349SOL    HW223489   2.107   6.363  11.571 -0.4970 -1.1016 -0.3001
 7350SOL     OW23490   3.517   2.180   8.864 -0.1358 -0.1879 -0.0590
 7350SOL    HW123491   3.525   2.163   8.957  0.3414  0.0344 -0.0548
 7350SOL    HW223492   3.531   2.275   8.855  1.9374 -0.4829 -0.5538
 7351SOL     OW23493   1.978   2.615   2.548 -0.0067 -0.5510  0.0899
 7351SOL    HW123494   2.070   2.627   2.524 -0.0607  0.5317  0.4016
 7351SOL    HW223495   1.935   2.593   2.465  0.3222  0.1789 -0.2842
 7352SOL     OW23496   6.654   1.686   3.858 -0.1524  0.4321  0.1441
 7352SOL    HW123497   6.636   1.769   3.813  1.3111  0.3621 -0.6338
 7352SOL    HW223498   6.638   1.704   3.950  3.0694  2.5712  0.4518
 7353SOL     OW23499   2.571   3.299   0.789 -0.4096 -0.0171  0.8730
 7353SOL    HW123500   2.518   3.290   0.710 -0.9976 -0.1092  1.2744
 7353SOL    HW223501   2.585   3.209   0.818  1.1857 -0.0935 -0.0159
 7354SOL     OW23502   3.625   7.700   1.037 -0.2229 -1.1262  0.0667
 7354SOL    HW123503   3.557   7.645   0.997  0.3040 -1.8887  0.2003
 7354SOL    HW223504   3.658   7.648   1.111 -0.4956 -0.1565  0.9013
 7355SOL     OW23505   1.791   1.445   7.975 -0.0549  0.0809  0.1492
 7355SOL    HW123506   1.796   1.350   7.979 -1.1587 -0.0470 -0.9095
 7355SOL    HW223507   1.873   1.471   7.933  1.0461 -0.2313  1.9930
 7356SOL     OW23508   1.965   5.191   1.406 -0.2394  0.4229  0.2310
 7356SOL    HW123509   1.936   5.181   1.315 -0.2403 -0.9997  0.3657
 7356SOL    HW223510   1.890   5.162   1.458 -0.0121  0.6157  0.6693
 7357SOL     OW23511   1.814   2.728   6.665  0.1883 -0.4515 -0.1097
 7357SOL    HW123512   1.875   2.785   6.618  1.8418 -0.8079  1.4784
 7357SOL    HW223513   1.846   2.639   6.647  0.2854 -0.6290  0.8917
 7358SOL     OW23514   2.799   7.025   7.419 -0.1549  0.2387 -0.3153
 7358SOL    HW123515   2.819   7.053   7.329 -0.7476  1.7202 -0.0160
 7358SOL    HW223516   2.883   7.000   7.456 -0.0505 -1.4916 -1.6302
 7359SOL     OW23517   1.482   4.261   3.902 -0.2211 -0.6187 -0.0072
 7359SOL    HW123518   1.431   4.275   3.822 -1.4243  0.4732  0.9313
 7359SOL    HW223519   1.420   4.221   3.963  0.4214 -0.5437  0.6998
 7360SOL     OW23520   5.058   1.429   6.999  0.2968 -0.5181  0.0000
 7360SOL    HW123521   5.128   1.461   6.943 -2.2401  1.7762 -2.1597
 7360SOL    HW223522   5.069   1.475   7.082  2.5167 -1.8957  0.5627
 7361SOL     OW23523   5.006   4.841   2.009 -0.0119 -0.0114 -0.5140
 7361SOL    HW123524   4.940   4.787   1.966 -0.2376  0.1011 -0.3127
 7361SOL    HW223525   5.024   4.796   2.091  1.6160 -1.1028 -1.4333
 7362SOL     OW23526   2.863   2.857   6.652  0.0249 -0.0569 -0.6150
 7362SOL    HW123527   2.919   2.889   6.722  1.4154 -0.3692 -1.5267
 7362SOL    HW223528   2.793   2.923   6.644  0.9543  1.0060 -0.2516
 7363SOL     OW23529   5.059   0.568   6.739 -0.1570  0.0931  0.1362
 7363SOL    HW123530   5.104   0.645   6.703  0.9624 -1.3173 -1.6681
 7363SOL    HW223531   5.026   0.522   6.662 -1.2596 -0.9966  1.2122
 7364SOL     OW23532   6.885   1.789   1.812 -0.0375 -0.4834 -0.6709
 7364SOL    HW123533   6.892   1.799   1.907  1.2135 -1.1827 -0.6700
 7364SOL    HW223534   6.798   1.750   1.798 -0.1142 -0.6427  0.1982
 7365SOL     OW23535   6.648   1.079   3.986 -0.5956  0.8694  0.9198
 7365SOL    HW123536   6.708   1.151   3.965  0.8211 -0.2951  0.8251
 7365SOL    HW223537   6.645   1.026   3.907 -0.1007 -0.1963  1.5956
 7366SOL     OW23538   4.387   7.380   4.970 -0.0426 -0.0493  0.1690
 7366SOL    HW123539   4.299   7.417   4.968 -0.9446 -2.0412  0.4399
 7366SOL    HW223540   4.396   7.346   5.060  0.9812  0.1014  0.1288
 7367SOL     OW23541   5.535   4.041  11.290 -0.4413 -0.0929  0.1716
 7367SOL    HW123542   5.455   3.996  11.319 -0.5309  0.1793  0.3464
 7367SOL    HW223543   5.505   4.125  11.256 -0.2362 -0.0156  0.1781
 7368SOL     OW23544   5.703   6.184   4.490 -0.2676 -0.4470  0.1444
 7368SOL    HW123545   5.642   6.219   4.425 -0.0363  1.2012  0.7529
 7368SOL    HW223546   5.784   6.170   4.441  0.0451  1.2193  0.1206
 7369SOL     OW23547   2.052   7.533  11.089  0.8473 -0.1014  0.3089
 7369SOL    HW123548   2.053   7.519  10.995  1.8399  1.7184 -0.0104
 7369SOL    HW223549   2.098   7.458  11.125  0.3044 -0.9053 -0.6239
 7370SOL     OW23550   0.168   0.891   9.331 -0.2259  0.5728  0.2194
 7370SOL    HW123551   0.249   0.887   9.381 -0.4534  0.3843  0.5818
 7370SOL    HW223552   0.194   0.925   9.246  0.7643 -2.2560 -0.7347
 7371SOL     OW23553   7.607   7.679  12.213  0.0971 -0.0478  0.1463
 7371SOL    HW123554   7.608   7.584  12.204  1.3727  0.0199 -0.6868
 7371SOL    HW223555   7.608   7.712  12.123  0.5404  0.7551  0.4358
 7372SOL     OW23556   5.468   3.796   2.179 -0.2294 -0.1727  0.6022
 7372SOL    HW123557   5.381   3.823   2.151  0.1254  0.8965  0.4692
 7372SOL    HW223558   5.492   3.724   2.120 -0.3540  0.6274 -0.4425
 7373SOL     OW23559   1.557   5.262  10.537 -0.4469  0.3416  0.4145
 7373SOL    HW123560   1.502   5.213  10.597 -0.5232 -1.0976 -0.7832
 7373SOL    HW223561   1.559   5.210  10.457  0.6861  1.5632 -0.4100
 7374SOL     OW23562   2.219   2.081  11.370  0.1250 -0.6484 -0.0769
 7374SOL    HW123563   2.261   2.088  11.285  0.7201 -2.2563  0.0448
 7374SOL    HW223564   2.251   2.156  11.419  1.8816 -1.1260 -0.4146
 7375SOL     OW23565   5.186   6.814   1.064  0.0292 -0.3055  0.2122
 7375SOL    HW123566   5.204   6.837   0.973  1.6358  0.6709  0.7416
 7375SOL    HW223567   5.209   6.721   1.070  0.7242 -0.1710 -0.1911
 7376SOL     OW23568   7.252   0.546  10.044  0.1232 -0.0995 -0.6440
 7376SOL    HW123569   7.297   0.473  10.001  0.8814 -1.0686  1.6313
 7376SOL    HW223570   7.243   0.518  10.135 -1.6692  1.7102 -0.2020
 7377SOL     OW23571   6.628   4.313   2.386 -0.1003 -0.1388 -0.1001
 7377SOL    HW123572   6.533   4.323   2.377 -0.0610  1.2471  0.7528
 7377SOL    HW223573   6.640   4.220   2.407 -1.3020 -0.2648  0.1214
 7378SOL     OW23574   3.604   3.818   4.018  0.1724 -0.3352 -0.4021
 7378SOL    HW123575   3.692   3.847   4.043 -0.4084  1.3761 -0.2122
 7378SOL    HW223576   3.579   3.755   4.085  0.8944 -0.1142  0.0887
 7379SOL     OW23577   2.920   4.337   0.542  0.4005  0.2336  0.0307
 7379SOL    HW123578   2.828   4.335   0.517  0.6272 -0.9411 -0.8299
 7379SOL    HW223579   2.932   4.258   0.596  0.4824  1.4228  1.8481
 7380SOL     OW23580   3.311   3.129   4.743 -0.2680 -0.0861  0.2054
 7380SOL    HW123581   3.249   3.133   4.670 -1.3117 -0.4040  1.0441
 7380SOL    HW223582   3.389   3.089   4.706 -0.2238  1.1014 -1.0916
 7381SOL     OW23583   1.299   5.751   5.241  0.8401 -0.0589 -0.1317
 7381SOL    HW123584   1.312   5.703   5.159  0.1406  1.1150 -0.9664
 7381SOL    HW223585   1.346   5.834   5.227 -1.1541  1.1059 -0.2773
 7382SOL     OW23586   7.741   3.185   0.750  0.5092 -0.0854  0.2152
 7382SOL    HW123587   7.766   3.273   0.781  2.2209 -0.5186  0.1988
 7382SOL    HW223588   7.683   3.201   0.676 -0.6254  1.0000  1.2921
 7383SOL     OW23589   3.477   7.593   5.850 -0.0709 -0.1771 -0.5579
 7383SOL    HW123590   3.393   7.613   5.809 -1.5686 -1.6725  1.5988
 7383SOL    HW223591   3.477   7.645   5.931  0.0019 -1.9188  0.6054
 7384SOL     OW23592   6.413   1.141   2.785 -0.4808 -0.3700  0.3622
 7384SOL    HW123593   6.343   1.206   2.779  2.3170  3.3578  3.0062
 7384SOL    HW223594   6.413   1.114   2.877  0.9886 -0.9392  0.2240
 7385SOL     OW23595   0.028   7.906  11.882  0.1633  0.3797 -0.4842
 7385SOL    HW123596   0.024   7.975  11.816  1.5139  1.2351  0.2756
 7385SOL    HW223597   0.012   7.952  11.965  0.5752 -0.3017 -0.0155
 7386SOL     OW23598   5.050   1.896   6.876  0.5005  0.3660  0.1283
 7386SOL    HW123599   5.054   1.923   6.968 -1.8809  0.8386  0.1569
 7386SOL    HW223600   5.067   1.976   6.827  0.5490  0.3828  0.1727
 7387SOL     OW23601   3.348   2.648   6.210  0.2536  0.0710 -0.0181
 7387SOL    HW123602   3.346   2.733   6.165 -0.0090 -0.0405 -0.2194
 7387SOL    HW223603   3.432   2.648   6.255  0.1379  0.5532  0.2075
 7388SOL     OW23604   6.290   6.112   1.614 -0.5200  0.3024  0.0987
 7388SOL    HW123605   6.255   6.157   1.537  1.6460  0.6184 -0.7726
 7388SOL    HW223606   6.272   6.171   1.686 -1.4730  0.5808 -0.3462
 7389SOL     OW23607   4.672   7.799   9.662  0.0064 -0.0280  0.0434
 7389SOL    HW123608   4.603   7.770   9.722  0.7348  0.9453  1.4238
 7389SOL    HW223609   4.724   7.721   9.644  0.7432 -0.0613  2.0534
 7390SOL     OW23610   5.656   3.279  12.272 -0.0948  0.0008 -0.2053
 7390SOL    HW123611   5.587   3.222  12.306  1.7917 -1.4331  1.4493
 7390SOL    HW223612   5.723   3.279  12.340  1.2165  1.9990 -1.3872
 7391SOL     OW23613   7.816   2.606   3.547 -0.2605  0.0821  0.2117
 7391SOL    HW123614   7.811   2.624   3.641 -0.8061 -0.3258  0.2683
 7391SOL    HW223615   7.892   2.655   3.517 -0.0029  0.1137  0.8919
 7392SOL     OW23616   4.514   2.392   8.143  0.0313 -0.1264  0.2742
 7392SOL    HW123617   4.491   2.301   8.164 -0.4824 -0.0186  0.1951
 7392SOL    HW223618   4.601   2.403   8.180  0.5206 -0.9527 -0.5773
 7393SOL     OW23619   2.940   3.042  10.842 -0.3276  0.0742 -0.4383
 7393SOL    HW123620   2.851   3.075  10.829 -0.4035  0.4848  1.0111
 7393SOL    HW223621   2.937   2.951  10.811 -1.4542 -0.1546  0.3172
 7394SOL     OW23622   1.631   6.396   0.629 -0.3235  0.2106  0.0167
 7394SOL    HW123623   1.709   6.403   0.573 -1.1071  0.2447 -1.0966
 7394SOL    HW223624   1.629   6.305   0.657 -0.7312 -0.1789 -1.2343
 7395SOL     OW23625   1.779   0.728   6.666 -0.5239 -0.1080  0.4109
 7395SOL    HW123626   1.823   0.758   6.746 -1.1345  0.3153  0.5908
 7395SOL    HW223627   1.759   0.636   6.683 -0.9653  0.0730  0.8853
 7396SOL     OW23628   0.827   1.889   3.468  0.2855  0.2128  0.2379
 7396SOL    HW123629   0.873   1.805   3.461 -1.2694 -0.7384  0.8418
 7396SOL    HW223630   0.832   1.911   3.561 -0.2508  0.2265  0.2665
 7397SOL     OW23631   7.019   1.597   0.859 -0.5983  0.8600 -0.3574
 7397SOL    HW123632   7.036   1.587   0.766 -0.7396  0.8574 -0.3832
 7397SOL    HW223633   6.952   1.666   0.864 -0.1617  1.2838 -0.2246
 7398SOL     OW23634   2.477   4.242   2.414  0.6509  0.1378 -0.0328
 7398SOL    HW123635   2.408   4.302   2.443 -1.8669 -2.6578  0.2439
 7398SOL    HW223636   2.460   4.229   2.321  0.6547 -0.7006  0.0733
 7399SOL     OW23637   4.312   1.681  11.431 -0.3537 -0.2238  0.3464
 7399SOL    HW123638   4.254   1.755  11.417 -0.8528 -0.9865 -1.9200
 7399SOL    HW223639   4.342   1.692  11.522 -1.4269  1.9887  0.5107
 7400SOL     OW23640   3.224   4.002   6.513  0.3590  0.1952  0.5585
 7400SOL    HW123641   3.280   3.981   6.438 -1.6050 -1.1960 -0.6052
 7400SOL    HW223642   3.198   4.093   6.499  1.5236  0.5516  0.6094
 7401SOL     OW23643   7.562   0.550   2.874 -0.1956  0.2000 -0.1747
 7401SOL    HW123644   7.480   0.566   2.828  0.2488  1.5665 -0.5262
 7401SOL    HW223645   7.545   0.575   2.964 -0.0736  0.8349 -0.3222
 7402SOL     OW23646   3.260   7.909  12.288 -0.5219  0.1212  0.4687
 7402SOL    HW123647   3.308   7.991  12.298  0.4203 -0.3237 -0.1590
 7402SOL    HW223648   3.235   7.908  12.196 -0.8746 -0.1098  0.5688
 7403SOL     OW23649   1.320   1.086  11.523 -0.0795 -0.5123 -0.3840
 7403SOL    HW123650   1.281   1.147  11.460  2.7387  0.2590 -1.5801
 7403SOL    HW223651   1.403   1.128  11.548  0.3199 -2.2508  1.5023
 7404SOL     OW23652   4.140   3.132  11.595 -0.0911 -0.0622 -0.0127
 7404SOL    HW123653   4.235   3.144  11.587  0.6697 -3.8524  1.5207
 7404SOL    HW223654   4.111   3.206  11.649  1.7351  1.7478 -1.3607
 7405SOL     OW23655   7.144   5.969   3.818  0.0962 -0.1161 -0.2290
 7405SOL    HW123656   7.052   5.995   3.826 -0.7186 -3.0353  1.6987
 7405SOL    HW223657   7.194   6.047   3.843 -1.7757  1.6363 -1.6244
 7406SOL     OW23658   3.297   6.062   7.394  0.0795 -0.2217  0.3607
 7406SOL    HW123659   3.329   6.086   7.480 -0.9766  1.0084  0.4479
 7406SOL    HW223660   3.367   6.086   7.334  0.6727 -0.7534  0.8326
 7407SOL     OW23661   5.093   4.666   2.223  0.2291 -0.0807  0.0186
 7407SOL    HW123662   5.042   4.594   2.261 -0.8537 -0.0287 -1.2784
 7407SOL    HW223663   5.170   4.673   2.280 -1.2922 -0.0167  2.2086
 7408SOL     OW23664   7.565   1.898   1.443 -0.1048  0.5964 -0.3279
 7408SOL    HW123665   7.547   1.986   1.477 -2.4576 -0.3726  1.1600
 7408SOL    HW223666   7.484   1.849   1.458  0.5332 -1.3847 -2.6969
 7409SOL     OW23667   7.059   6.470   4.852  0.0301  0.3464 -0.5430
 7409SOL    HW123668   7.093   6.557   4.873  0.0358  0.7289 -2.0560
 7409SOL    HW223669   6.993   6.486   4.784  0.0733 -0.8436 -0.8791
 7410SOL     OW23670   6.240   6.229   6.048 -0.4429  0.0886  0.0713
 7410SOL    HW123671   6.253   6.319   6.080 -0.8299  0.5702 -1.0825
 7410SOL    HW223672   6.210   6.240   5.958  1.8343 -1.2632 -0.9162
 7411SOL     OW23673   5.712   6.969   1.322  1.0432  0.7561  0.5778
 7411SOL    HW123674   5.801   6.969   1.286  1.0118  1.6109  0.4828
 7411SOL    HW223675   5.664   7.031   1.267 -0.2377 -1.3836 -0.8603
 7412SOL     OW23676   1.289   5.981  10.936  0.4630  1.2860 -0.3604
 7412SOL    HW123677   1.284   6.052  10.873 -1.4543  2.5091  1.0508
 7412SOL    HW223678   1.223   5.918  10.908  2.1537 -0.0092 -1.6048
 7413SOL     OW23679   5.794   7.120   4.131 -0.4330  0.3316 -0.1971
 7413SOL    HW123680   5.749   7.036   4.127 -0.0732  0.1995 -2.2134
 7413SOL    HW223681   5.879   7.104   4.092  0.0851  1.3774  0.4564
 7414SOL     OW23682   6.557   2.185   3.457  0.4843 -0.3442  0.2810
 7414SOL    HW123683   6.611   2.179   3.536 -1.5961  1.3706  1.9738
 7414SOL    HW223684   6.508   2.103   3.455  0.1712 -0.1885  1.1147
 7415SOL     OW23685   4.427   5.808   3.292 -0.3230 -0.2100 -0.1749
 7415SOL    HW123686   4.442   5.713   3.293  0.1005 -0.1561 -0.8554
 7415SOL    HW223687   4.336   5.817   3.319 -0.5092 -0.8431 -0.5565
 7416SOL     OW23688   5.798   4.234  11.301 -0.2413 -0.3067  0.6604
 7416SOL    HW123689   5.727   4.174  11.278  0.0714 -0.2470 -0.5256
 7416SOL    HW223690   5.786   4.251  11.395 -1.9898 -0.0259  0.4191
 7417SOL     OW23691   4.198   6.956  10.917 -0.7805  0.3137 -0.6464
 7417SOL    HW123692   4.154   7.028  10.961 -0.4314 -0.0284  0.3061
 7417SOL    HW223693   4.133   6.885  10.915 -0.8952  0.4254 -0.9616
 7418SOL     OW23694   3.192   3.739   0.847  0.3973  0.1024  0.4178
 7418SOL    HW123695   3.262   3.711   0.788 -0.3456 -2.4598  0.6353
 7418SOL    HW223696   3.228   3.726   0.935 -0.2741 -1.1462  0.5307
 7419SOL     OW23697   6.855   2.916  11.775  0.0983 -0.1714 -0.4293
 7419SOL    HW123698   6.772   2.881  11.808  0.5422 -1.3460 -0.5211
 7419SOL    HW223699   6.832   3.003  11.742 -0.3572  1.2700  3.1853
 7420SOL     OW23700   6.089   2.929   4.794 -0.2755  0.0751  0.1532
 7420SOL    HW123701   6.019   2.907   4.734  1.0877 -0.5106 -1.3078
 7420SOL    HW223702   6.169   2.919   4.742  0.9975 -0.8272  2.1361
 7421SOL     OW23703   5.054   5.452   3.416  0.4096 -0.1107 -0.1948
 7421SOL    HW123704   5.024   5.540   3.394  0.8589 -0.4341 -2.3554
 7421SOL    HW223705   5.093   5.460   3.503 -1.3080  1.3814  0.4831
 7422SOL     OW23706   4.826   6.491   9.801  0.5251  0.0400 -0.5117
 7422SOL    HW123707   4.831   6.410   9.751  1.1939 -1.5086  1.8476
 7422SOL    HW223708   4.914   6.502   9.837 -0.1762  0.4342  1.1894
 7423SOL     OW23709   0.176   6.105   1.608  0.3926 -0.4262 -0.2629
 7423SOL    HW123710   0.158   6.185   1.657 -1.8838 -1.5564  0.8780
 7423SOL    HW223711   0.203   6.136   1.521  1.8310  1.5747  0.8128
 7424SOL     OW23712   1.321   2.552   2.892 -0.1362 -0.2876  0.0814
 7424SOL    HW123713   1.317   2.521   2.801  0.0251 -0.1180  0.0139
 7424SOL    HW223714   1.291   2.643   2.888  0.3868 -0.1108  0.1113
 7425SOL     OW23715   1.735   2.122   3.116  0.3363 -0.1784 -0.0976
 7425SOL    HW123716   1.749   2.206   3.072  1.4912 -0.5340 -0.4529
 7425SOL    HW223717   1.651   2.132   3.161 -0.6785  0.3529 -2.0046
 7426SOL     OW23718   6.033   3.755   8.055 -0.0470 -0.4795  0.5338
 7426SOL    HW123719   6.054   3.740   7.963 -1.7676  1.2588 -0.1978
 7426SOL    HW223720   6.030   3.850   8.064 -1.5288 -0.6218  1.9703
 7427SOL     OW23721   6.185   2.723   1.392 -0.3854  0.0044 -0.0699
 7427SOL    HW123722   6.141   2.739   1.308 -0.1989  1.7661  0.1217
 7427SOL    HW223723   6.169   2.803   1.443  0.5379 -0.5342  1.1171
 7428SOL     OW23724   2.861   6.812   7.215 -0.0978  0.4591  0.0088
 7428SOL    HW123725   2.846   6.897   7.174  1.6323  0.1891 -1.2572
 7428SOL    HW223726   2.951   6.816   7.248 -0.0714 -0.7934  0.1516
 7429SOL     OW23727   4.744   3.629   2.909 -0.3308  0.2206  0.0173
 7429SOL    HW123728   4.834   3.611   2.884 -0.4310 -0.1770 -0.0688
 7429SOL    HW223729   4.741   3.724   2.922 -0.4209  0.5448 -2.1068
 7430SOL     OW23730   6.872   1.894   3.431  0.0830  0.0945  0.5960
 7430SOL    HW123731   6.899   1.953   3.500 -0.8236 -0.3626  1.3570
 7430SOL    HW223732   6.875   1.947   3.351  3.4356  0.0401  0.5261
 7431SOL     OW23733   4.497   0.057  10.272  0.0842 -0.2603  0.0031
 7431SOL    HW123734   4.511   0.029  10.363  2.2817 -1.8320 -0.7236
 7431SOL    HW223735   4.415   0.014  10.246  0.3760 -1.3010  0.7172
 7432SOL     OW23736   6.244   6.841   4.543 -0.3060 -0.1692 -0.2455
 7432SOL    HW123737   6.178   6.786   4.586  1.1248 -1.0269  0.9479
 7432SOL    HW223738   6.327   6.802   4.568  0.6895  1.1840 -1.3086
 7433SOL     OW23739   2.224   2.951  10.138 -0.2221  0.7025  0.6567
 7433SOL    HW123740   2.271   2.980  10.059  0.1494  1.7545  1.2465
 7433SOL    HW223741   2.293   2.929  10.200 -0.5168 -0.0412  0.7280
 7434SOL     OW23742   1.486   5.030   5.176  0.3582 -0.0461  0.7385
 7434SOL    HW123743   1.422   4.961   5.159  0.2208  0.4278 -0.8383
 7434SOL    HW223744   1.436   5.100   5.220  0.2684 -0.5067  1.3823
 7435SOL     OW23745   2.176   3.602   4.105 -0.4538  0.0570  0.6964
 7435SOL    HW123746   2.101   3.662   4.113 -1.0613 -0.7751  1.4041
 7435SOL    HW223747   2.138   3.515   4.119  0.7560 -0.3286  1.7105
 7436SOL     OW23748   3.216   0.867  11.016  0.6364  0.3078 -0.0767
 7436SOL    HW123749   3.186   0.896  10.930  1.2542 -1.0694 -0.7862
 7436SOL    HW223750   3.142   0.820  11.053  1.2369 -1.4455 -1.0253
 7437SOL     OW23751   5.813   4.598   1.145 -0.1933  0.9300 -0.1586
 7437SOL    HW123752   5.879   4.592   1.214 -0.3599  0.0004 -0.0683
 7437SOL    HW223753   5.821   4.516   1.097 -0.2074  1.4823 -1.1395
 7438SOL     OW23754   7.163   3.961   1.170 -0.2476 -0.0298  0.2744
 7438SOL    HW123755   7.190   3.944   1.260 -2.0743 -0.5241  0.7838
 7438SOL    HW223756   7.078   4.005   1.179 -0.4788 -0.1221 -1.2036
 7439SOL     OW23757   4.363   3.665   3.262 -0.1846 -0.1597  0.2743
 7439SOL    HW123758   4.451   3.698   3.283  0.8167 -2.9747  0.9356
 7439SOL    HW223759   4.377   3.607   3.186 -0.9479 -2.5443  1.8444
 7440SOL     OW23760   7.502   2.879   8.192 -0.0841  0.4405  0.0328
 7440SOL    HW123761   7.508   2.784   8.179  2.2148  0.6205 -0.8269
 7440SOL    HW223762   7.463   2.911   8.110  1.2212  0.3766 -0.6495
 7441SOL     OW23763   3.539   5.379  10.352 -0.3919  0.6251 -0.3299
 7441SOL    HW123764   3.591   5.313  10.305 -0.7253  0.8061 -0.9745
 7441SOL    HW223765   3.530   5.450  10.289  0.0401  1.3343  0.3914
 7442SOL     OW23766   0.344   0.090   1.491 -0.5152 -0.1755  0.1595
 7442SOL    HW123767   0.415   0.107   1.429  0.8226 -1.5953  1.2102
 7442SOL    HW223768   0.389   0.071   1.574 -2.1277 -1.0926  0.8734
 7443SOL     OW23769   7.707   2.145   9.917 -0.2139  0.5664  0.6019
 7443SOL    HW123770   7.719   2.120   9.825 -1.7490  1.3934  0.1374
 7443SOL    HW223771   7.740   2.234   9.922 -0.0694  0.4985  0.8782
 7444SOL     OW23772   2.924   7.725   9.534 -0.3757 -0.3330  0.0467
 7444SOL    HW123773   2.890   7.636   9.526 -3.1408  0.0874  4.1883
 7444SOL    HW223774   2.855   7.780   9.499  0.7170  0.2953 -1.1833
 7445SOL     OW23775   6.867   5.244   4.853 -0.3298 -0.2340  0.2048
 7445SOL    HW123776   6.865   5.183   4.926 -0.4278 -0.1215  0.2971
 7445SOL    HW223777   6.877   5.330   4.894 -1.7979 -0.0265  0.1710
 7446SOL     OW23778   3.703   1.400   0.119 -0.3748 -0.0018  0.1906
 7446SOL    HW123779   3.763   1.420   0.191 -0.0615  1.1665 -0.3587
 7446SOL    HW223780   3.752   1.424   0.040 -0.4344 -1.9310 -0.4904
 7447SOL     OW23781   0.528   7.812   9.540 -0.0291  0.0879 -0.1796
 7447SOL    HW123782   0.460   7.799   9.606  0.0195  1.8862  0.2624
 7447SOL    HW223783   0.519   7.904   9.514  1.2732 -0.0458 -1.2058
 7448SOL     OW23784   2.098   7.034   8.679 -0.6275 -0.4256 -0.3012
 7448SOL    HW123785   2.033   6.966   8.701 -0.6646  0.1617  1.6513
 7448SOL    HW223786   2.129   7.011   8.592 -2.4614 -1.5171 -0.7254
 7449SOL     OW23787   1.255   1.062  11.195 -0.0841 -0.3795 -0.6637
 7449SOL    HW123788   1.312   1.137  11.179  1.3838 -1.6023 -1.5088
 7449SOL    HW223789   1.171   1.100  11.220  1.2468  1.5070  1.2818
 7450SOL     OW23790   4.373   5.848   6.047 -0.2363  0.7287 -0.5892
 7450SOL    HW123791   4.348   5.756   6.060 -1.2235  0.5390 -3.3461
 7450SOL    HW223792   4.468   5.845   6.038 -0.1159  0.1810  0.6073
 7451SOL     OW23793   1.496   2.176   7.910  0.5588 -0.0635 -0.2442
 7451SOL    HW123794   1.523   2.111   7.845  1.4469  2.3399 -2.4521
 7451SOL    HW223795   1.575   2.192   7.962 -0.0413 -1.6728  1.3056
 7452SOL     OW23796   6.447   4.063   7.496  0.1677  0.3994 -0.3349
 7452SOL    HW123797   6.426   4.135   7.437  0.1069  0.1328 -0.6427
 7452SOL    HW223798   6.371   4.057   7.554 -0.0211  0.2999 -0.5900
 7453SOL     OW23799   4.675   0.372   1.684 -0.0007 -0.4194  0.7412
 7453SOL    HW123800   4.725   0.295   1.659 -0.5579 -0.0609 -1.7726
 7453SOL    HW223801   4.740   0.441   1.697  0.3004 -0.3663 -0.8814
 7454SOL     OW23802   4.921   1.679   1.092 -0.0403  0.2679  0.7091
 7454SOL    HW123803   4.921   1.598   1.144 -1.9727 -0.0263  0.3602
 7454SOL    HW223804   4.926   1.749   1.157  0.2780 -0.1173  1.1105
 7455SOL     OW23805   4.176   4.014  12.177 -0.3279 -0.3308  0.1086
 7455SOL    HW123806   4.202   4.099  12.140 -0.1221 -0.6932 -0.5980
 7455SOL    HW223807   4.258   3.965  12.184 -0.2969 -0.1051  1.5030
 7456SOL     OW23808   1.121   7.489   4.430  0.2645 -0.1994 -0.0773
 7456SOL    HW123809   1.056   7.556   4.447 -1.1171 -0.7867 -2.5080
 7456SOL    HW223810   1.195   7.537   4.391 -0.4521  0.0347 -1.1963
 7457SOL     OW23811   1.740   6.027  11.911 -0.3088 -1.1112 -0.2440
 7457SOL    HW123812   1.741   6.112  11.955  0.1361 -0.8208 -0.7978
 7457SOL    HW223813   1.701   6.045  11.825 -1.4577 -1.7286  0.1235
 7458SOL     OW23814   6.618   0.240   5.047  0.3723  0.1277 -0.2469
 7458SOL    HW123815   6.673   0.206   5.119  0.2125 -0.5854 -0.4597
 7458SOL    HW223816   6.599   0.330   5.073  0.0369 -0.2256  0.7793
 7459SOL     OW23817   1.807   7.885   8.824  0.7433 -0.1264  0.3503
 7459SOL    HW123818   1.881   7.824   8.830  0.3867 -0.6263 -0.2242
 7459SOL    HW223819   1.731   7.832   8.847  0.4532  0.1461  0.0214
 7460SOL     OW23820   1.083   0.350   5.433 -0.3187 -0.3494  0.2657
 7460SOL    HW123821   1.024   0.354   5.358 -1.3010  0.5985  1.0574
 7460SOL    HW223822   1.089   0.257   5.454  1.4274 -0.8703 -2.0589
 7461SOL     OW23823   0.715   6.012   0.370 -0.0926 -0.2389  0.8172
 7461SOL    HW123824   0.654   6.010   0.443 -1.5730  0.6208 -0.3326
 7461SOL    HW223825   0.752   6.101   0.372 -0.4875 -0.0526  0.2849
 7462SOL     OW23826   2.635   0.690   3.951  0.1375 -0.5964 -0.2154
 7462SOL    HW123827   2.639   0.738   3.868 -2.9073 -0.3772 -0.3453
 7462SOL    HW223828   2.617   0.599   3.925  0.9801 -0.8805  0.1701
 7463SOL     OW23829   5.317   4.896   0.856 -0.1000 -0.5661 -0.1012
 7463SOL    HW123830   5.406   4.888   0.821 -0.6349 -2.7696 -1.0686
 7463SOL    HW223831   5.322   4.855   0.942  0.2616  1.2745  0.8250
 7464SOL     OW23832   0.079   0.073   2.569  0.1226  0.1369 -0.0021
 7464SOL    HW123833  -0.005   0.052   2.528  0.1035  1.2546 -0.5978
 7464SOL    HW223834   0.061   0.075   2.662  0.4499 -3.7386  0.2934
 7465SOL     OW23835   1.076   0.952   7.064 -0.9218 -1.0496 -0.7312
 7465SOL    HW123836   0.988   0.956   7.026 -1.4205 -0.5038  0.4254
 7465SOL    HW223837   1.067   0.892   7.138 -0.5713 -0.2240 -0.0023
 7466SOL     OW23838   7.401   6.502   9.752  0.4435  0.3003 -0.2990
 7466SOL    HW123839   7.310   6.501   9.780  0.6750 -2.4909  0.7367
 7466SOL    HW223840   7.451   6.511   9.834  1.0677 -0.7692 -0.5297
 7467SOL     OW23841   4.856   4.857   2.322 -0.0066  0.1101 -0.3125
 7467SOL    HW123842   4.879   4.912   2.247 -0.9805 -0.2763 -0.9141
 7467SOL    HW223843   4.811   4.781   2.284  2.4296 -1.8033  0.3708
 7468SOL     OW23844   7.800   0.141   9.921 -0.1306 -0.3310 -0.2277
 7468SOL    HW123845   7.825   0.224   9.962  0.5919 -0.7260  0.1679
 7468SOL    HW223846   7.748   0.166   9.845 -0.3517  0.4658  0.1734
 7469SOL     OW23847   6.699   5.738   9.993  0.1198 -0.4216 -0.3252
 7469SOL    HW123848   6.607   5.761  10.007  0.6536  1.5898  0.2484
 7469SOL    HW223849   6.709   5.736   9.897 -0.3394  0.3197 -0.4016
 7470SOL     OW23850   4.377   4.002   8.989  0.0015  0.0394 -0.5402
 7470SOL    HW123851   4.286   4.031   8.987  0.4634  2.3068  2.9238
 7470SOL    HW223852   4.417   4.043   8.912 -1.0669  2.6604  0.1940
 7471SOL     OW23853   5.487   4.486   1.436  0.4703 -0.2110 -0.0519
 7471SOL    HW123854   5.429   4.505   1.362  0.4134  1.5028  0.3717
 7471SOL    HW223855   5.432   4.437   1.497 -0.1489  0.2194 -0.2414
 7472SOL     OW23856   5.510   0.657   0.193 -0.3598  0.0402 -0.2102
 7472SOL    HW123857   5.443   0.594   0.220  2.7685 -3.8578 -0.6461
 7472SOL    HW223858   5.491   0.675   0.101 -1.6460  0.2905  0.0885
 7473SOL     OW23859   0.337   1.096   9.885 -0.3840  0.1683  0.0026
 7473SOL    HW123860   0.290   1.125   9.807  3.4110  0.6394 -2.3721
 7473SOL    HW223861   0.361   1.177   9.930 -2.9004 -0.1065  2.0844
 7474SOL     OW23862   7.645   5.719  10.469  0.1628 -0.6635  0.0405
 7474SOL    HW123863   7.615   5.681  10.386  0.5593  0.9147 -0.8730
 7474SOL    HW223864   7.685   5.646  10.516  1.1596 -1.3372 -1.7619
 7475SOL     OW23865   7.208   1.609   9.023  0.0296  0.2763  0.1217
 7475SOL    HW123866   7.235   1.698   9.041 -1.9199  0.9821 -0.1404
 7475SOL    HW223867   7.158   1.583   9.100  0.2355 -0.4417  0.0186
 7476SOL     OW23868   1.253   1.856   3.075  0.1671 -0.0912 -0.1461
 7476SOL    HW123869   1.184   1.921   3.070 -0.5091 -0.6336  1.5038
 7476SOL    HW223870   1.220   1.782   3.024 -0.5789 -0.4140  0.7745
 7477SOL     OW23871   1.504   6.858  11.639 -0.0450 -0.1868 -0.1359
 7477SOL    HW123872   1.527   6.831  11.728  0.3100  1.2205  0.2347
 7477SOL    HW223873   1.565   6.810  11.583  0.3333 -0.4148  0.4595
 7478SOL     OW23874   4.145   6.888   2.567  0.1612 -0.0406 -0.1137
 7478SOL    HW123875   4.136   6.969   2.616 -0.7318 -1.0194  1.4096
 7478SOL    HW223876   4.153   6.916   2.476  0.4881  1.7649  0.4313
 7479SOL     OW23877   1.476   7.907   3.405  0.1466 -0.2342  0.4141
 7479SOL    HW123878   1.430   7.941   3.481  2.4407  0.6804  1.4749
 7479SOL    HW223879   1.451   7.966   3.334 -1.6347 -0.8117  0.5000
 7480SOL     OW23880   7.429   0.007  12.031 -0.3537  0.0947  0.0566
 7480SOL    HW123881   7.459   0.096  12.014  1.3267  0.0820  2.4210
 7480SOL    HW223882   7.391   0.011  12.119 -2.9489 -0.9830 -0.9171
 7481SOL     OW23883   5.124   4.260   9.610  0.1027  0.0779  0.0386
 7481SOL    HW123884   5.213   4.226   9.610  1.1053  2.4767 -1.0368
 7481SOL    HW223885   5.083   4.221   9.687  1.1508 -3.2413 -0.9148
 7482SOL     OW23886   5.049   5.414   3.999  0.2687  0.0175  0.4298
 7482SOL    HW123887   5.123   5.355   4.013 -0.0640 -0.4256  0.3353
 7482SOL    HW223888   5.080   5.499   4.031  0.8220 -0.1590  0.3749
 7483SOL     OW23889   4.891   6.260   7.526 -0.1128  0.3016 -0.1251
 7483SOL    HW123890   4.986   6.251   7.522 -0.1117 -0.1319  0.6406
 7483SOL    HW223891   4.877   6.339   7.579 -0.1816  0.9649 -1.1019
 7484SOL     OW23892   5.668   5.366   2.703 -0.0082  0.6384 -0.4603
 7484SOL    HW123893   5.691   5.444   2.755 -0.8377  0.3577  0.3483
 7484SOL    HW223894   5.590   5.392   2.655 -1.0884 -0.1022  0.8354
 7485SOL     OW23895   4.718   3.555   3.176  0.4408 -0.1016  0.4782
 7485SOL    HW123896   4.685   3.632   3.221  0.9745  0.3745  0.0719
 7485SOL    HW223897   4.683   3.562   3.087  2.0846  0.7265 -0.1322
 7486SOL     OW23898   6.278   3.289  11.456 -0.2606 -0.7388 -0.3936
 7486SOL    HW123899   6.330   3.224  11.408 -0.7355 -2.1578  0.9298
 7486SOL    HW223900   6.194   3.291  11.412  0.5682  1.0173 -2.0824
 7487SOL     OW23901   1.701   3.639  12.177 -0.1475 -0.4428  0.1395
 7487SOL    HW123902   1.669   3.710  12.232 -3.7279 -1.3099 -0.5549
 7487SOL    HW223903   1.701   3.674  12.088 -1.7417 -1.1744 -0.1832
 7488SOL     OW23904   1.693   3.049  11.470  0.4163  0.0515  0.5262
 7488SOL    HW123905   1.708   2.985  11.400 -0.3242 -0.4738  0.8449
 7488SOL    HW223906   1.689   3.133  11.425 -0.0189 -0.2809 -0.0656
 7489SOL     OW23907   5.816   7.691   2.073 -0.4645  0.1393  0.2275
 7489SOL    HW123908   5.761   7.673   2.150 -0.2939 -1.5513  0.0064
 7489SOL    HW223909   5.765   7.753   2.021 -1.3402  0.0088  0.9020
 7490SOL     OW23910   6.484   0.270   2.085  0.3858 -0.2719 -0.1387
 7490SOL    HW123911   6.457   0.264   1.993  1.6642  1.6907 -0.7112
 7490SOL    HW223912   6.533   0.189   2.101 -1.6179 -1.6178 -0.5105
 7491SOL     OW23913   2.338   2.436   3.868  0.0745 -0.5275 -0.7012
 7491SOL    HW123914   2.311   2.407   3.955  0.3291  1.2029 -0.0051
 7491SOL    HW223915   2.396   2.510   3.884 -1.1636  0.8972 -2.3821
 7492SOL     OW23916   2.237   2.085  10.437  0.2159 -0.0866 -0.1472
 7492SOL    HW123917   2.320   2.042  10.454  1.0659  0.3296 -2.7173
 7492SOL    HW223918   2.231   2.088  10.341 -2.3494  0.6899 -0.0496
 7493SOL     OW23919   1.494   4.327   2.138  0.1378  0.5238 -0.9291
 7493SOL    HW123920   1.472   4.397   2.077 -0.3071  0.7300 -0.5440
 7493SOL    HW223921   1.427   4.334   2.206  1.2126  0.9581  0.1181
 7494SOL     OW23922   4.515   2.558   5.924 -0.0924  0.4396  0.0594
 7494SOL    HW123923   4.510   2.470   5.962  1.8904 -0.1238 -0.8369
 7494SOL    HW223924   4.486   2.548   5.834  1.2766  0.4292 -0.3979
 7495SOL     OW23925   3.487   4.791   7.109 -0.2899 -0.2633 -0.2513
 7495SOL    HW123926   3.464   4.699   7.099  4.1093 -1.4857 -1.1240
 7495SOL    HW223927   3.511   4.799   7.202  0.5663 -0.3494 -0.4633
 7496SOL     OW23928   3.985   1.692   9.222 -0.5542  0.3123  0.3304
 7496SOL    HW123929   3.969   1.716   9.131  1.3558 -0.2092 -0.1760
 7496SOL    HW223930   3.953   1.602   9.229  2.3202 -0.9017 -0.8085
 7497SOL     OW23931   2.808   5.325   0.293 -0.1594  0.5796 -0.4691
 7497SOL    HW123932   2.791   5.236   0.324  1.0500 -0.0759 -1.5642
 7497SOL    HW223933   2.738   5.378   0.331 -1.3960 -0.9810 -0.4713
 7498SOL     OW23934   5.748   0.861   2.845 -0.2624  0.1409 -0.3491
 7498SOL    HW123935   5.711   0.781   2.882 -3.5247  1.5159 -0.3622
 7498SOL    HW223936   5.835   0.867   2.885 -0.2440 -2.8740  0.3590
 7499SOL     OW23937   5.849   7.714   8.055 -0.0689  0.0776  0.3418
 7499SOL    HW123938   5.934   7.739   8.089 -0.3373  1.5134  0.0224
 7499SOL    HW223939   5.791   7.712   8.131 -0.0714  0.5808  0.3544
 7500SOL     OW23940   4.342   5.992   8.910  0.3826  0.1612 -0.3161
 7500SOL    HW123941   4.383   6.031   8.988  0.1455  0.5659 -0.3918
 7500SOL    HW223942   4.263   5.949   8.944 -0.0352  0.8439 -0.4157
 7501SOL     OW23943   4.911   4.697   7.674 -0.6907 -0.4547  0.5108
 7501SOL    HW123944   4.840   4.759   7.693  0.1624  0.7860 -0.2335
 7501SOL    HW223945   4.923   4.702   7.579  1.5944  0.7555  0.7997
 7502SOL     OW23946   3.988   7.164   5.197  0.3347 -0.2578 -0.3084
 7502SOL    HW123947   3.913   7.117   5.163 -0.3283  1.1699 -0.9218
 7502SOL    HW223948   4.011   7.118   5.277 -1.0206 -0.8922 -0.2566
 7503SOL     OW23949   3.149   2.063   7.235  0.0049  0.3362 -0.0227
 7503SOL    HW123950   3.180   1.973   7.246  2.5941  0.9749 -1.1751
 7503SOL    HW223951   3.057   2.054   7.211  0.3454 -2.0450 -0.7003
 7504SOL     OW23952   1.916   3.420   4.520  0.1115  0.0046  0.5696
 7504SOL    HW123953   1.888   3.499   4.474 -0.7358 -0.5606  0.0920
 7504SOL    HW223954   2.012   3.426   4.521  0.1147  0.4423 -0.5488
 7505SOL     OW23955   3.558   6.946   9.178 -0.2022 -0.6415  0.2948
 7505SOL    HW123956   3.492   6.883   9.149  0.7530 -1.5770  0.0933
 7505SOL    HW223957   3.514   6.999   9.244 -2.1342  0.8715 -2.0437
 7506SOL     OW23958   2.231   0.907   9.839  0.1124 -0.4971 -0.0012
 7506SOL    HW123959   2.221   0.942   9.928  1.8506 -2.5633  1.0869
 7506SOL    HW223960   2.142   0.885   9.812 -0.5394  0.9105  0.8528
 7507SOL     OW23961   7.753   0.795  12.349 -0.1386  0.6723 -0.1527
 7507SOL    HW123962   7.828   0.817  12.293 -1.3978 -0.6024 -2.4572
 7507SOL    HW223963   7.677   0.807  12.293 -1.6742  1.4734  2.0014
 7508SOL     OW23964   3.340   2.993   0.513  0.1126 -0.4604 -0.1346
 7508SOL    HW123965   3.355   2.971   0.605 -0.6319  0.7405  0.3014
 7508SOL    HW223966   3.274   2.930   0.483 -1.1542  0.3992  0.7542
 7509SOL     OW23967   7.430   6.576   3.214  0.1942 -0.1058 -0.3316
 7509SOL    HW123968   7.434   6.645   3.281  3.0348 -1.1964  0.7944
 7509SOL    HW223969   7.405   6.497   3.262 -0.6455 -0.3554 -1.1502
 7510SOL     OW23970   3.755   1.498   0.476  0.0260 -0.3125 -0.0122
 7510SOL    HW123971   3.799   1.487   0.392 -0.3373 -1.3277 -0.0797
 7510SOL    HW223972   3.783   1.584   0.507 -2.0579  1.4133 -2.4832
 7511SOL     OW23973   3.203   3.911   4.302  0.3638  0.1934 -0.1340
 7511SOL    HW123974   3.175   4.000   4.325  0.4133 -0.0691  1.0338
 7511SOL    HW223975   3.178   3.900   4.211 -3.5004 -0.0717  0.7856
 7512SOL     OW23976   1.741   0.796   1.446 -0.3300 -0.2828  0.3752
 7512SOL    HW123977   1.815   0.814   1.504 -0.4087 -1.0111  0.7143
 7512SOL    HW223978   1.664   0.825   1.496 -0.2183  1.6710 -0.4752
 7513SOL     OW23979   6.800   4.086  11.892 -0.5528  0.2342 -0.0503
 7513SOL    HW123980   6.724   4.142  11.906 -1.6878 -1.1612 -0.3914
 7513SOL    HW223981   6.821   4.052  11.979  0.0300  1.0259  0.1288
 7514SOL     OW23982   4.903   0.125   1.347  0.1762 -0.6452  0.3956
 7514SOL    HW123983   4.926   0.051   1.291 -1.3570  0.2477 -1.5250
 7514SOL    HW223984   4.810   0.113   1.366  0.2929 -0.0506  1.4310
 7515SOL     OW23985   3.835   0.140   9.461 -0.4588  0.1900 -0.0851
 7515SOL    HW123986   3.766   0.079   9.435  0.3045 -1.0581  0.7118
 7515SOL    HW223987   3.814   0.221   9.415 -2.3690 -0.1958  0.0457
 7516SOL     OW23988   5.515   7.922  11.342 -0.0501 -0.1399  0.0172
 7516SOL    HW123989   5.447   7.881  11.396  0.6774 -1.1557  0.1987
 7516SOL    HW223990   5.537   7.856  11.277  0.3072  0.4263 -0.4417
 7517SOL     OW23991   1.744   0.192   3.490 -0.4423  0.4142 -0.2434
 7517SOL    HW123992   1.724   0.108   3.532  3.8133 -0.1067  1.2182
 7517SOL    HW223993   1.766   0.170   3.400  0.0241 -0.0014 -0.0358
 7518SOL     OW23994   1.402   2.418   5.062  0.3923  0.4063 -0.1233
 7518SOL    HW123995   1.324   2.361   5.058 -0.5175  1.4927  1.1709
 7518SOL    HW223996   1.451   2.385   5.137 -0.2357  1.3818  0.7534
 7519SOL     OW23997   5.352   0.076   0.537 -0.0974 -0.5573  0.2509
 7519SOL    HW123998   5.323   0.164   0.513 -0.2404 -0.9025 -0.8959
 7519SOL    HW223999   5.403   0.088   0.617  2.6869  1.0272 -1.6327
 7520SOL     OW24000   1.094   0.930   4.513 -0.0823 -0.0437  0.5828
 7520SOL    HW124001   1.097   0.999   4.579  0.0280  0.2948  0.2299
 7520SOL    HW224002   1.009   0.941   4.471  0.6518  1.0547 -0.7015
 7521SOL     OW24003   1.997   0.905   2.171 -0.0558  0.1352 -0.1114
 7521SOL    HW124004   2.037   0.864   2.095 -1.1305  0.8412 -1.0792
 7521SOL    HW224005   1.929   0.843   2.199 -0.1405  0.2061 -0.1607
 7522SOL     OW24006   2.787   5.185   3.716 -0.5389  0.2903  0.4089
 7522SOL    HW124007   2.836   5.110   3.749  0.8962  0.7071 -0.6913
 7522SOL    HW224008   2.792   5.178   3.621  0.8372  2.4977  0.2518
 7523SOL     OW24009   6.919   7.945   3.737  0.0909  0.0328 -0.9033
 7523SOL    HW124010   6.887   7.872   3.684 -1.0084  0.7117 -1.2244
 7523SOL    HW224011   6.926   8.018   3.675  1.7967  0.0497 -0.7187
 7524SOL     OW24012   7.395   4.876   0.082 -0.6884  0.2282  0.2510
 7524SOL    HW124013   7.362   4.854  -0.005  0.2128 -1.3830  0.2694
 7524SOL    HW224014   7.380   4.970   0.090 -0.8691  0.4048 -1.6146
 7525SOL     OW24015   2.620   6.759   2.439 -0.7440 -0.6387  0.1793
 7525SOL    HW124016   2.704   6.716   2.459  0.8979  2.1584 -0.1950
 7525SOL    HW224017   2.623   6.773   2.345 -0.8354  0.9421  0.3898
 7526SOL     OW24018   4.512   7.640   6.409  0.0244 -0.9277  0.2398
 7526SOL    HW124019   4.482   7.582   6.479 -0.2043 -0.1914  0.7615
 7526SOL    HW224020   4.441   7.703   6.399 -0.0919 -1.2225 -0.8901
 7527SOL     OW24021   5.829   6.132   5.693 -0.3786 -0.5509  0.1543
 7527SOL    HW124022   5.842   6.146   5.599  0.9822  1.2155  0.5416
 7527SOL    HW224023   5.906   6.171   5.734 -2.9188  2.8189  2.2452
 7528SOL     OW24024   2.524   4.553   4.450 -0.1418  0.0796  0.1710
 7528SOL    HW124025   2.466   4.595   4.386 -0.5882  1.6131  1.5379
 7528SOL    HW224026   2.551   4.472   4.407 -1.6196  0.3388 -1.3536
 7529SOL     OW24027   7.721   1.173   2.696  0.0111  0.3396 -0.2396
 7529SOL    HW124028   7.736   1.088   2.738 -0.0445 -0.0515 -0.9831
 7529SOL    HW224029   7.799   1.188   2.643 -0.6685 -0.0521 -1.4050
 7530SOL     OW24030   3.351   5.744   7.971 -0.1593  0.6024 -0.3398
 7530SOL    HW124031   3.399   5.698   7.902 -0.6933 -0.7255  0.1451
 7530SOL    HW224032   3.270   5.694   7.981  0.2533  0.2660  1.8036
 7531SOL     OW24033   1.465   7.735   3.162 -0.1013 -0.4534 -0.3418
 7531SOL    HW124034   1.451   7.817   3.210  1.3187 -0.7370  0.6643
 7531SOL    HW224035   1.470   7.761   3.070 -0.4248  0.4773 -0.1065
 7532SOL     OW24036   4.674   0.781  11.317  0.2991  0.0787 -0.0808
 7532SOL    HW124037   4.664   0.774  11.412 -0.4623  0.1286 -0.1464
 7532SOL    HW224038   4.646   0.696  11.283 -0.2431  0.3346 -0.3044
 7533SOL     OW24039   3.735   2.535   5.977  0.3349  0.2764  0.4713
 7533SOL    HW124040   3.771   2.448   5.993  1.1316  0.4696 -0.2447
 7533SOL    HW224041   3.789   2.594   6.029  1.6713  0.6701 -1.2782
 7534SOL     OW24042   5.852   7.713   1.222  0.2748 -0.7716 -0.2563
 7534SOL    HW124043   5.824   7.802   1.202 -0.9853 -1.1222 -0.1455
 7534SOL    HW224044   5.935   7.723   1.269  0.0511  0.3338 -0.0820
 7535SOL     OW24045   1.513   0.142   8.412 -0.1227 -0.1071 -0.2099
 7535SOL    HW124046   1.507   0.070   8.476  0.3569 -0.5766 -0.6828
 7535SOL    HW224047   1.429   0.139   8.366 -0.1465 -0.3024 -0.1573
 7536SOL     OW24048   2.992   1.701   0.923  0.3183 -0.0275  0.0896
 7536SOL    HW124049   3.077   1.726   0.887 -0.1433  1.4547 -0.0351
 7536SOL    HW224050   3.009   1.690   1.017  0.8420 -0.7711 -0.0741
 7537SOL     OW24051   5.208   2.456  12.259 -0.3329  0.0253  0.1501
 7537SOL    HW124052   5.158   2.497  12.189  1.6917  0.9158 -0.8303
 7537SOL    HW224053   5.150   2.460  12.335 -1.6659  1.1852 -0.8884
 7538SOL     OW24054   1.105   1.653   2.913 -0.3059  0.0982 -0.7964
 7538SOL    HW124055   1.029   1.615   2.868 -2.2556  1.0869  1.4216
 7538SOL    HW224056   1.117   1.597   2.991  1.9853 -0.6691 -1.6145
 7539SOL     OW24057   7.370   3.296   4.323 -0.0781 -0.1238 -0.1976
 7539SOL    HW124058   7.453   3.331   4.356  0.5019 -1.2079 -0.4699
 7539SOL    HW224059   7.305   3.323   4.388  0.4744  0.7650  0.0077
 7540SOL     OW24060   1.283   6.976   1.770  0.3935  0.2219  0.3418
 7540SOL    HW124061   1.360   6.964   1.827  0.2318  1.7068  0.9338
 7540SOL    HW224062   1.212   6.933   1.817  0.6614 -0.3188  0.2625
 7541SOL     OW24063   2.850   4.728   3.637 -0.1252 -0.1692 -0.1443
 7541SOL    HW124064   2.924   4.785   3.617 -0.8153 -0.1300 -2.9980
 7541SOL    HW224065   2.782   4.788   3.669  0.1689  0.1487 -0.1062
 7542SOL     OW24066   5.026   6.280  10.423 -0.0410  0.6810  0.2393
 7542SOL    HW124067   4.934   6.281  10.396  0.4769  2.4860 -1.8065
 7542SOL    HW224068   5.024   6.280  10.518 -2.2083  1.7870  0.2599
 7543SOL     OW24069   5.623   7.576   5.393 -0.4393  0.8940 -0.6106
 7543SOL    HW124070   5.684   7.505   5.413 -0.6888  1.1090  1.0080
 7543SOL    HW224071   5.679   7.652   5.376 -0.1999  0.5093 -1.6772
 7544SOL     OW24072   4.563   1.002   9.461  0.7917  0.1392 -0.4151
 7544SOL    HW124073   4.566   1.093   9.433  0.9978  0.1190 -0.4612
 7544SOL    HW224074   4.480   0.969   9.426  0.2311  0.5858  0.4764
 7545SOL     OW24075   1.368   3.765  12.035  0.2931  0.2977 -0.1769
 7545SOL    HW124076   1.388   3.694  11.974  1.9478  1.9436 -1.6786
 7545SOL    HW224077   1.451   3.781  12.081 -0.1954  0.9179  0.5158
 7546SOL     OW24078   2.532   3.104   6.777  0.0321 -0.6575  0.3198
 7546SOL    HW124079   2.497   3.189   6.806 -0.2271  0.9998 -4.0478
 7546SOL    HW224080   2.465   3.041   6.804 -1.9497  1.1554  0.0130
 7547SOL     OW24081   2.790   6.332  10.104 -0.0458 -0.1030 -0.7968
 7547SOL    HW124082   2.798   6.328  10.200 -0.0591 -0.8305 -0.8225
 7547SOL    HW224083   2.811   6.423  10.082  0.6223 -0.1007 -0.1681
 7548SOL     OW24084   0.044   6.084  10.890 -0.0334  0.5545  0.1393
 7548SOL    HW124085   0.063   6.177  10.878 -3.7584  1.2618 -1.8540
 7548SOL    HW224086   0.001   6.080  10.976 -0.4800  0.8244 -0.0668
 7549SOL     OW24087   5.427   4.679   1.891  0.2737 -0.3805  0.0623
 7549SOL    HW124088   5.351   4.702   1.837 -0.2533 -1.5760  0.2542
 7549SOL    HW224089   5.501   4.684   1.831  0.1124  1.1434 -0.0473
 7550SOL     OW24090   7.615   5.630   3.366  0.1224 -0.5368 -0.0474
 7550SOL    HW124091   7.608   5.545   3.411  0.4607 -1.9672 -2.5363
 7550SOL    HW224092   7.709   5.647   3.364  0.0211  0.2807  1.0148
 7551SOL     OW24093   3.645   5.468   2.936  0.3349  0.2552  0.2412
 7551SOL    HW124094   3.597   5.508   3.009  0.5921 -1.5816  1.4843
 7551SOL    HW224095   3.583   5.408   2.896  0.3936  0.7983 -0.6840
 7552SOL     OW24096   3.684   0.615   0.243 -0.2167  0.0631 -0.7665
 7552SOL    HW124097   3.775   0.587   0.250 -0.1220  0.6639  0.6952
 7552SOL    HW224098   3.639   0.566   0.312 -0.6283  1.1887 -0.2112
 7553SOL     OW24099   6.680   5.964   3.799 -0.0887  0.5511  0.4354
 7553SOL    HW124100   6.691   5.944   3.706  1.0311  0.0012  0.6681
 7553SOL    HW224101   6.660   6.058   3.801 -0.6176  0.4619 -0.3843
 7554SOL     OW24102   5.697   2.193   3.483 -0.2467 -0.3246  0.2994
 7554SOL    HW124103   5.671   2.250   3.411 -1.9904 -1.3157  0.0932
 7554SOL    HW224104   5.792   2.206   3.491 -0.4900  2.1850 -0.0545
 7555SOL     OW24105   5.899   4.912   2.626 -0.4179 -0.0923  0.2055
 7555SOL    HW124106   5.811   4.888   2.655 -0.6139 -0.2644 -0.5302
 7555SOL    HW224107   5.902   5.007   2.633 -0.4942 -0.1234  0.7006
 7556SOL     OW24108   6.088   0.521  10.317 -0.1163 -0.1542 -0.9449
 7556SOL    HW124109   6.158   0.583  10.338 -1.3923  0.8339  0.6942
 7556SOL    HW224110   6.132   0.437  10.307  1.1029 -0.1559  2.8525
 7557SOL     OW24111   2.442   5.544   9.591 -0.2646 -0.0596 -0.0054
 7557SOL    HW124112   2.472   5.504   9.510 -0.8797 -1.2483  0.3291
 7557SOL    HW224113   2.383   5.479   9.630 -1.7703  1.4127  0.2903
 7558SOL     OW24114   4.091   1.743   2.542  0.1406  0.5300  0.0975
 7558SOL    HW124115   4.008   1.698   2.559  0.3996 -0.5765 -1.3685
 7558SOL    HW224116   4.065   1.829   2.508 -0.4738 -0.3507 -1.7860
 7559SOL     OW24117   5.875   2.295   1.976  0.1433 -0.3150 -0.1664
 7559SOL    HW124118   5.915   2.216   1.939  1.8657  0.4030  0.0837
 7559SOL    HW224119   5.862   2.273   2.068  1.2313 -0.1057  0.0519
 7560SOL     OW24120   3.705   2.521   8.466  0.5237  0.3683  0.0842
 7560SOL    HW124121   3.649   2.569   8.527 -0.2373 -0.3108 -0.0608
 7560SOL    HW224122   3.667   2.433   8.462  2.2692 -0.4756  0.8537
 7561SOL     OW24123   0.308   5.740   5.222 -0.1501  0.1974 -0.2873
 7561SOL    HW124124   0.221   5.704   5.202 -0.0771 -0.0672 -0.1361
 7561SOL    HW224125   0.291   5.826   5.259 -0.4786 -0.7109  1.8309
 7562SOL     OW24126   2.017   7.936   5.957  0.4764 -0.1054 -0.0377
 7562SOL    HW124127   1.952   7.867   5.965  0.2263  0.0468 -0.7127
 7562SOL    HW224128   2.070   7.929   6.037 -1.0908  0.5474  1.1111
 7563SOL     OW24129   2.507   1.156   2.034 -0.1321 -0.3125 -0.6149
 7563SOL    HW124130   2.594   1.132   2.003 -0.5722 -1.3926 -1.0804
 7563SOL    HW224131   2.522   1.224   2.099  0.9750  0.3347 -1.5143
 7564SOL     OW24132   0.281   3.378  12.341 -0.5505  0.3475  0.4686
 7564SOL    HW124133   0.325   3.460  12.363  0.5129 -0.1853  0.3935
 7564SOL    HW224134   0.316   3.314  12.403 -1.5925  0.0064  0.7218
 7565SOL     OW24135   6.018   3.018  11.025  0.4855  0.1645  0.8149
 7565SOL    HW124136   6.045   2.928  11.043  0.0267  0.4106  3.0220
 7565SOL    HW224137   6.097   3.071  11.042  0.9847  0.1714 -1.2390
 7566SOL     OW24138   5.144   2.645   0.549  0.3487  0.3962 -0.1240
 7566SOL    HW124139   5.063   2.638   0.499 -0.6736 -0.6775  1.5753
 7566SOL    HW224140   5.168   2.737   0.543 -1.2791  0.8406 -0.2822
 7567SOL     OW24141   0.531   3.912   5.754 -0.1045 -0.0377 -0.1449
 7567SOL    HW124142   0.473   3.881   5.685 -1.4623  0.9758  0.4955
 7567SOL    HW224143   0.499   3.999   5.776  1.0206  0.1397  0.9603
 7568SOL     OW24144   7.728   7.483   8.216  0.0426 -0.8187  0.2094
 7568SOL    HW124145   7.796   7.417   8.230 -0.0671 -0.7300  1.1880
 7568SOL    HW224146   7.691   7.499   8.303 -1.1426 -0.7637 -0.2904
 7569SOL     OW24147   0.332   7.216   2.372 -0.0062 -0.4994 -0.6728
 7569SOL    HW124148   0.296   7.196   2.286 -0.4917  0.4500 -0.7069
 7569SOL    HW224149   0.427   7.208   2.362  0.0479  1.1116 -1.7121
 7570SOL     OW24150   0.094   5.561   9.764  0.1740  0.3462  0.7268
 7570SOL    HW124151   0.119   5.480   9.720 -1.8266 -1.6148  2.8952
 7570SOL    HW224152   0.015   5.589   9.718  1.5280  1.8670 -0.8084
 7571SOL     OW24153   0.264   2.546   9.584 -0.0850  0.4252 -0.3405
 7571SOL    HW124154   0.256   2.584   9.496 -0.1062  1.1003 -0.0571
 7571SOL    HW224155   0.177   2.512   9.604  0.1846 -0.7083 -1.0044
 7572SOL     OW24156   4.738   6.590  12.151 -0.1001  0.0943 -0.3542
 7572SOL    HW124157   4.675   6.585  12.223 -1.4391 -0.5409 -1.5200
 7572SOL    HW224158   4.728   6.507  12.105  0.2649  0.7459 -1.6523
 7573SOL     OW24159   6.867   2.111   5.201  0.5089  0.2920 -0.2459
 7573SOL    HW124160   6.875   2.207   5.199  0.6882  0.2991  0.4501
 7573SOL    HW224161   6.957   2.080   5.212  0.4848  0.0257 -0.7629
 7574SOL     OW24162   1.097   2.337   1.687 -0.0188 -0.2696  0.2917
 7574SOL    HW124163   1.012   2.315   1.725  1.0380 -0.5110  2.6735
 7574SOL    HW224164   1.115   2.426   1.716  0.9084 -0.5315  0.5829
 7575SOL     OW24165   0.627   4.326   7.762 -0.3851  0.0263 -0.5515
 7575SOL    HW124166   0.661   4.267   7.829  1.6489 -0.2916 -1.7687
 7575SOL    HW224167   0.548   4.284   7.730 -2.0474  0.6945  2.2783
 7576SOL     OW24168   1.811   4.170   9.124  0.1322  0.3792 -0.3353
 7576SOL    HW124169   1.869   4.181   9.049  0.8294 -2.0213 -0.2405
 7576SOL    HW224170   1.723   4.165   9.086  0.3646  0.4037 -0.8759
 7577SOL     OW24171   7.781   5.217   1.959  0.2131  0.1825 -0.4159
 7577SOL    HW124172   7.754   5.140   1.910 -0.6593  0.7774 -0.8972
 7577SOL    HW224173   7.823   5.182   2.038 -0.3846 -0.7752 -0.5112
 7578SOL     OW24174   6.364   2.260  11.878 -0.2607 -0.4298  0.3966
 7578SOL    HW124175   6.410   2.307  11.808  0.0449 -0.9009  0.2768
 7578SOL    HW224176   6.297   2.322  11.909 -0.3250 -0.1823 -0.2358
 7579SOL     OW24177   1.217   1.567   3.384 -0.7273 -0.3027  0.1225
 7579SOL    HW124178   1.168   1.618   3.449 -1.8144  1.1366 -1.7262
 7579SOL    HW224179   1.290   1.624   3.358 -0.6511 -0.6122 -0.3679
 7580SOL     OW24180   3.868   3.498   0.098 -0.1861 -0.0118  0.1489
 7580SOL    HW124181   3.777   3.468   0.100 -0.2185  0.0968  0.2930
 7580SOL    HW224182   3.915   3.431   0.048 -0.1764 -0.5145  0.8310
 7581SOL     OW24183   6.937   1.831   0.671  0.6989 -0.4657  0.1039
 7581SOL    HW124184   7.015   1.840   0.617  1.9906 -0.9888  1.7825
 7581SOL    HW224185   6.953   1.890   0.746  0.1843 -1.6922  1.2146
 7582SOL     OW24186   5.645   4.289   0.475 -0.3287 -0.3441  0.0507
 7582SOL    HW124187   5.590   4.306   0.551 -0.6884 -0.1504 -0.2528
 7582SOL    HW224188   5.658   4.375   0.435  0.8539 -0.2589  0.5608
 7583SOL     OW24189   5.187   3.870   7.443  0.1296 -0.0176 -0.0071
 7583SOL    HW124190   5.104   3.830   7.467  0.4470 -0.6620  0.0467
 7583SOL    HW224191   5.176   3.963   7.463  0.3581 -0.4684  2.6864
 7584SOL     OW24192   1.924   4.060   1.106  0.1660  0.0956 -0.0540
 7584SOL    HW124193   1.961   3.979   1.140  0.0718 -0.3498 -0.9659
 7584SOL    HW224194   1.883   4.034   1.023  0.5158  1.1458 -0.5747
 7585SOL     OW24195   5.420   7.569   6.260  0.8146 -0.2802 -0.4031
 7585SOL    HW124196   5.452   7.480   6.272 -1.6349 -1.0009  1.3304
 7585SOL    HW224197   5.353   7.562   6.193  0.3214  0.1736  0.0332
 7586SOL     OW24198   3.264   1.855  11.607  0.1480 -0.0439 -0.6266
 7586SOL    HW124199   3.216   1.890  11.682 -1.4033 -1.1379 -1.0714
 7586SOL    HW224200   3.350   1.833  11.642 -0.3567 -0.0064  0.7051
 7587SOL     OW24201   4.088   6.431   6.389 -0.6817  0.0964 -0.1332
 7587SOL    HW124202   4.076   6.401   6.299 -0.0614 -1.5447  0.2990
 7587SOL    HW224203   4.172   6.392   6.416  0.7560  3.1046  0.1584
 7588SOL     OW24204   1.029   4.349   8.537  0.0399 -0.4684 -0.1756
 7588SOL    HW124205   1.103   4.376   8.591  1.6341 -1.6152 -1.6510
 7588SOL    HW224206   0.952   4.384   8.582  1.4217  0.3819  1.6731
 7589SOL     OW24207   5.260   4.576   5.447  0.4159 -0.4020  0.0548
 7589SOL    HW124208   5.184   4.574   5.505  0.7712  0.6345  0.5816
 7589SOL    HW224209   5.330   4.535   5.498  1.0321  1.5374  0.8585
 7590SOL     OW24210   3.975   2.315   5.034 -0.4242  0.3022  0.1483
 7590SOL    HW124211   4.012   2.278   5.114 -0.0790 -3.1965 -1.4501
 7590SOL    HW224212   3.881   2.320   5.052 -0.2338  0.6141  1.1292
 7591SOL     OW24213   6.043   2.736  11.491 -0.0064 -0.3792 -0.4162
 7591SOL    HW124214   5.990   2.657  11.491 -1.3301  0.4663  0.6984
 7591SOL    HW224215   6.096   2.729  11.571  2.4271 -1.7098 -2.0305
 7592SOL     OW24216   2.412   6.482   9.672 -0.0613 -0.0820  0.5377
 7592SOL    HW124217   2.395   6.398   9.630  1.7340 -0.1740 -0.0544
 7592SOL    HW224218   2.436   6.459   9.762 -1.5144 -0.0446  0.9558
 7593SOL     OW24219   6.067   6.321  10.213 -0.0889 -0.4145  0.0670
 7593SOL    HW124220   6.004   6.292  10.278  1.2254 -0.3074  1.4359
 7593SOL    HW224221   6.071   6.249  10.150 -1.8202 -0.2606 -0.2830
 7594SOL     OW24222   7.295   0.511   2.148  0.3043 -0.7353 -0.9755
 7594SOL    HW124223   7.207   0.533   2.178  0.2937 -0.1893 -1.3963
 7594SOL    HW224224   7.352   0.578   2.187  0.5157 -0.9875 -0.8417
 7595SOL     OW24225   7.880   7.179  11.452  0.2603 -0.0300 -0.0964
 7595SOL    HW124226   7.880   7.223  11.537 -0.3523 -2.1983  1.1086
 7595SOL    HW224227   7.788   7.160  11.434  0.4280 -0.0456 -0.9905
 7596SOL     OW24228   6.446   2.049   3.019 -1.3890 -0.3376  0.2751
 7596SOL    HW124229   6.533   2.055   2.980 -0.6863  0.0586  1.8318
 7596SOL    HW224230   6.447   1.966   3.068 -1.5039  0.1814  1.1715
 7597SOL     OW24231   5.852   2.210   9.477  1.0515 -0.1566 -0.5480
 7597SOL    HW124232   5.872   2.128   9.432  1.0516 -0.7244  0.4493
 7597SOL    HW224233   5.870   2.191   9.569 -0.4150  0.4952 -0.1043
 7598SOL     OW24234   6.673   1.149   0.824 -0.2103 -0.2676  0.1791
 7598SOL    HW124235   6.680   1.223   0.884 -1.4430  0.3594 -0.4385
 7598SOL    HW224236   6.723   1.175   0.747 -0.4829 -0.1635  0.0385
 7599SOL     OW24237   4.351   3.526   8.780  0.4404  0.2707 -0.2660
 7599SOL    HW124238   4.299   3.446   8.773  1.0466 -0.2121  0.5185
 7599SOL    HW224239   4.319   3.582   8.709  0.9215 -1.1834 -1.6844
 7600SOL     OW24240   4.477   4.629  11.870  0.3014 -0.7443 -0.1750
 7600SOL    HW124241   4.563   4.660  11.843  0.8671 -1.5840  0.5991
 7600SOL    HW224242   4.455   4.561  11.806  2.1537 -3.5494  1.9849
 7601SOL     OW24243   6.642   2.275   6.842  0.3464 -0.3834 -0.7265
 7601SOL    HW124244   6.716   2.290   6.782 -0.2358  0.5946 -1.2247
 7601SOL    HW224245   6.595   2.202   6.803  1.3419 -1.3942 -0.1030
 7602SOL     OW24246   6.937   7.048  11.881 -0.3417 -0.0292  0.5597
 7602SOL    HW124247   6.870   7.080  11.821  0.6843  1.6450  0.2588
 7602SOL    HW224248   6.955   6.959  11.851  1.2774  1.2481 -2.7225
 7603SOL     OW24249   4.902   2.057   4.051 -0.1393  0.0261  0.7400
 7603SOL    HW124250   4.858   2.093   4.128 -1.1935  0.3448  0.0202
 7603SOL    HW224251   4.875   2.114   3.979 -0.0080 -0.8657 -0.0394
 7604SOL     OW24252   2.103   2.598   2.219 -0.4669 -0.3409  0.1800
 7604SOL    HW124253   2.009   2.586   2.233 -0.6576 -1.0725 -1.4473
 7604SOL    HW224254   2.129   2.520   2.170  1.3932 -1.0819  2.2005
 7605SOL     OW24255   2.045   3.798   1.128 -0.4149 -0.5318 -0.7637
 7605SOL    HW124256   2.086   3.714   1.149  0.1081  0.2194  1.5998
 7605SOL    HW224257   2.116   3.850   1.090 -0.8037 -1.1921 -2.4780
 7606SOL     OW24258   2.414   4.919   0.872 -0.2120 -0.5079  0.4510
 7606SOL    HW124259   2.393   4.834   0.833  0.1152 -0.8660  1.0517
 7606SOL    HW224260   2.350   4.930   0.942 -0.6065 -0.0005  0.0206
 7607SOL     OW24261   1.741   7.835   6.965 -0.0882 -0.0059 -0.1159
 7607SOL    HW124262   1.677   7.793   6.909 -0.0436  0.6207 -0.6481
 7607SOL    HW224263   1.820   7.841   6.911  0.1406  0.0484  0.2217
 7608SOL     OW24264   5.055   2.501   4.205 -0.0712 -0.0445  0.4849
 7608SOL    HW124265   4.985   2.510   4.139  0.4668  0.1914 -0.0653
 7608SOL    HW224266   5.039   2.415   4.245  1.0158 -1.3496 -1.6760
 7609SOL     OW24267   0.670   6.966   3.288 -0.3785 -0.3320  0.0187
 7609SOL    HW124268   0.685   6.909   3.363 -0.9059  0.0797  0.4405
 7609SOL    HW224269   0.661   6.906   3.214 -1.6098 -0.8613  0.5621
 7610SOL     OW24270   4.250   4.854   9.791  0.4102 -0.0881 -0.1211
 7610SOL    HW124271   4.247   4.795   9.867 -1.2500 -1.5822 -1.2647
 7610SOL    HW224272   4.272   4.939   9.828 -0.8211 -0.6589  2.1348
 7611SOL     OW24273   1.314   2.486   2.617 -0.3629 -0.0767  0.4966
 7611SOL    HW124274   1.317   2.485   2.522  0.3192 -0.5629  0.5164
 7611SOL    HW224275   1.337   2.397   2.643  0.6363  0.3444  1.1326
 7612SOL     OW24276   7.780   0.981   8.319  0.2246 -0.3653 -0.0045
 7612SOL    HW124277   7.820   0.976   8.233  2.1613 -1.9218  0.9123
 7612SOL    HW224278   7.853   0.973   8.381 -0.9749  1.7455  1.8248
 7613SOL     OW24279   7.187   6.353   0.351  0.5504 -0.1450 -0.3025
 7613SOL    HW124280   7.127   6.427   0.357 -0.4830 -0.8887 -0.9567
 7613SOL    HW224281   7.200   6.324   0.441  0.5184  0.4675 -0.0942
 7614SOL     OW24282   4.964   3.372   7.007  0.4345  0.5923  0.6680
 7614SOL    HW124283   4.926   3.369   6.919  0.9288 -0.4252  0.4789
 7614SOL    HW224284   5.052   3.408   6.995  0.9616 -0.7054  0.5676
 7615SOL     OW24285   0.304   1.039   1.331  0.2719  0.0555  0.4516
 7615SOL    HW124286   0.349   1.107   1.280 -0.6668  0.1472 -0.2916
 7615SOL    HW224287   0.355   1.031   1.412  0.0221  2.1487  0.8740
 7616SOL     OW24288   1.668   7.878  11.467  0.1939 -0.5261  0.3156
 7616SOL    HW124289   1.750   7.892  11.419 -0.6722 -2.6016 -1.9814
 7616SOL    HW224290   1.695   7.876  11.559  2.6184 -0.4429 -0.3122
 7617SOL     OW24291   6.894   2.138   0.443  0.6905 -0.4155 -0.5256
 7617SOL    HW124292   6.900   2.066   0.380 -1.5489 -1.3921  0.2879
 7617SOL    HW224293   6.857   2.211   0.393  0.1001 -0.7863 -0.6306
 7618SOL     OW24294   1.005   6.148   6.434 -0.0694  0.0263 -0.2110
 7618SOL    HW124295   0.999   6.208   6.509 -1.9819  0.8290 -0.9486
 7618SOL    HW224296   1.032   6.204   6.361 -0.9066 -0.1721 -0.6894
 7619SOL     OW24297   6.938   7.289   8.382 -0.1830  0.3683 -0.4137
 7619SOL    HW124298   6.922   7.379   8.353 -0.4972 -0.5246 -3.3304
 7619SOL    HW224299   6.924   7.236   8.303 -0.1061 -2.2603  1.2401
 7620SOL     OW24300   4.610   0.745   3.745  0.2192 -0.4322 -0.1445
 7620SOL    HW124301   4.567   0.823   3.780 -0.3957 -0.3790 -1.0040
 7620SOL    HW224302   4.633   0.768   3.655  0.6468 -1.0128 -0.1911
 7621SOL     OW24303   6.732   4.060   1.475 -0.0772  0.1538  0.9361
 7621SOL    HW124304   6.708   4.064   1.382  1.6809 -0.9797  0.3968
 7621SOL    HW224305   6.657   4.017   1.517  0.1863 -1.7069 -0.4041
 7622SOL     OW24306   1.843   1.885   1.675 -0.3198 -0.0399 -0.2944
 7622SOL    HW124307   1.769   1.893   1.735 -1.4826 -1.8355 -1.3871
 7622SOL    HW224308   1.854   1.972   1.638 -1.1994  0.4959  0.6614
 7623SOL     OW24309   3.457   2.616   8.942  0.1674  0.3234 -0.1700
 7623SOL    HW124310   3.371   2.647   8.969  0.4343 -0.3217  1.4987
 7623SOL    HW224311   3.507   2.696   8.927  0.2492  0.7709  2.1422
 7624SOL     OW24312   1.957   4.715   9.647 -0.4724 -0.2103  0.4261
 7624SOL    HW124313   1.964   4.739   9.555  0.4085  0.6729  0.6986
 7624SOL    HW224314   2.047   4.721   9.680 -0.6347 -1.3851  1.1397
 7625SOL     OW24315   2.401   4.993   2.346  0.0145 -0.3060 -0.1892
 7625SOL    HW124316   2.387   4.907   2.306 -0.4768  0.3072 -1.3868
 7625SOL    HW224317   2.313   5.023   2.368 -0.2233  1.2716 -2.8196
 7626SOL     OW24318   7.274   2.128   8.086  0.6315  0.1039  0.0912
 7626SOL    HW124319   7.351   2.158   8.135  0.6574 -0.4567  0.4007
 7626SOL    HW224320   7.235   2.209   8.051  0.8948  0.4642  0.6165
 7627SOL     OW24321   1.615   0.248   4.823  0.3606 -0.3019 -0.0244
 7627SOL    HW124322   1.643   0.158   4.840 -2.7369 -1.3366  0.2733
 7627SOL    HW224323   1.651   0.299   4.895  1.7079 -1.3865  0.1108
 7628SOL     OW24324   5.968   1.780   8.584 -0.2806  0.0216  0.5959
 7628SOL    HW124325   5.952   1.699   8.537  0.3052  0.8639 -1.1659
 7628SOL    HW224326   5.892   1.791   8.642 -1.5456 -0.5713 -0.8962
 7629SOL     OW24327   2.485   1.657  12.153 -0.3476 -0.4492  0.1842
 7629SOL    HW124328   2.577   1.643  12.135  0.0167  0.5348  1.1284
 7629SOL    HW224329   2.440   1.581  12.116  0.7015 -0.3435 -1.3747
 7630SOL     OW24330   0.997   7.121   7.120  0.5560  0.3194  0.4278
 7630SOL    HW124331   1.036   7.110   7.034  0.0933  1.4595  0.0547
 7630SOL    HW224332   0.973   7.032   7.147 -0.2001  0.0584 -1.0346
 7631SOL     OW24333   5.438   6.058  11.700 -0.1011  0.1303 -0.1689
 7631SOL    HW124334   5.457   6.058  11.793 -1.5132 -1.3278  0.1696
 7631SOL    HW224335   5.342   6.063  11.696  0.0017  2.4228 -1.6147
 7632SOL     OW24336   2.821   4.910   4.816 -0.0700 -0.1627  0.6550
 7632SOL    HW124337   2.822   4.819   4.848 -0.8124 -0.5029 -0.2462
 7632SOL    HW224338   2.840   4.962   4.894 -0.3132 -1.0541  1.3418
 7633SOL     OW24339   7.375   1.213   1.243 -0.2451  0.2605  0.4619
 7633SOL    HW124340   7.373   1.177   1.331 -1.2843  0.9338  0.7341
 7633SOL    HW224341   7.461   1.257   1.237 -0.1207  0.1150  1.0920
 7634SOL     OW24342   5.621   1.880   3.671 -0.1863  0.3152  0.1695
 7634SOL    HW124343   5.582   1.968   3.671 -0.0403  0.3804  0.2361
 7634SOL    HW224344   5.639   1.862   3.579  1.3107  1.0368  0.3003
 7635SOL     OW24345   1.475   7.425   7.487 -0.1472 -0.3737 -0.0561
 7635SOL    HW124346   1.405   7.375   7.529  0.5850 -0.5207  1.0319
 7635SOL    HW224347   1.485   7.503   7.541 -0.0430  0.0654 -0.6959
 7636SOL     OW24348   6.678   0.077   5.463  0.0968  0.1528 -0.6142
 7636SOL    HW124349   6.720   0.006   5.414 -0.5375  0.2494 -1.3225
 7636SOL    HW224350   6.736   0.093   5.537 -0.4393 -2.0927  0.3990
 7637SOL     OW24351   6.175   4.832  11.629  0.1384 -0.1572 -0.5479
 7637SOL    HW124352   6.122   4.798  11.557 -3.0918  0.5654  1.2903
 7637SOL    HW224353   6.155   4.774  11.702  1.8620  0.2467  0.2916
 7638SOL     OW24354   4.590   7.629   5.734  0.2356 -0.0383 -0.3138
 7638SOL    HW124355   4.681   7.618   5.762 -0.0279  0.8159  0.9708
 7638SOL    HW224356   4.538   7.612   5.813 -0.8127 -1.6080 -1.2801
 7639SOL     OW24357   4.760   0.512   3.301  0.0592 -0.4476 -0.3759
 7639SOL    HW124358   4.843   0.532   3.344  0.2413  1.6574 -1.5207
 7639SOL    HW224359   4.741   0.590   3.248 -3.4337 -0.1594  1.0128
 7640SOL     OW24360   6.949   7.691   6.001  0.1354 -0.1246  0.0540
 7640SOL    HW124361   6.910   7.695   6.089 -2.0888  1.8481 -0.9018
 7640SOL    HW224362   6.991   7.776   5.990  1.3515 -0.7700 -0.4230
 7641SOL     OW24363   3.950   7.338   3.705  0.4791  0.0435  0.8385
 7641SOL    HW124364   3.904   7.254   3.704  2.7859 -1.3818 -2.0777
 7641SOL    HW224365   4.037   7.317   3.740  1.3932  0.9753 -0.7540
 7642SOL     OW24366   5.530   4.806   5.428 -0.1269  0.1616 -0.0999
 7642SOL    HW124367   5.588   4.864   5.478  1.5275 -0.4088 -1.2917
 7642SOL    HW224368   5.497   4.744   5.493 -0.1586  1.0533  0.7691
 7643SOL     OW24369   3.806   6.449   2.599 -0.3930 -0.0671 -1.2796
 7643SOL    HW124370   3.856   6.522   2.563 -1.6184  0.8767 -1.1601
 7643SOL    HW224371   3.743   6.427   2.530 -2.2039  1.1990 -0.1319
 7644SOL     OW24372   6.229   5.434  12.361  0.2351 -0.4472  0.4505
 7644SOL    HW124373   6.227   5.450  12.455  1.4083 -2.2256  0.8139
 7644SOL    HW224374   6.165   5.496  12.325  1.5194  2.0054  2.1190
 7645SOL     OW24375   1.747   7.697   7.861  0.1462  0.2291 -0.0508
 7645SOL    HW124376   1.665   7.703   7.910 -0.7359 -0.1730 -1.4129
 7645SOL    HW224377   1.719   7.691   7.769  1.7140  0.3183 -0.5582
 7646SOL     OW24378   1.365   1.861   7.209 -0.1681 -0.0740 -0.6052
 7646SOL    HW124379   1.276   1.858   7.173 -0.4090  0.3982 -0.0589
 7646SOL    HW224380   1.361   1.925   7.280  0.8994  0.8670 -1.3530
 7647SOL     OW24381   5.501   4.341  10.830 -0.0775  0.0918  0.3017
 7647SOL    HW124382   5.406   4.339  10.840 -0.0818 -1.3822  0.2012
 7647SOL    HW224383   5.535   4.314  10.915  0.2126 -0.3480  0.0524
 7648SOL     OW24384   7.813   1.446   4.806  0.0004  0.0164 -0.9852
 7648SOL    HW124385   7.870   1.467   4.732  1.1773 -0.6961 -0.3191
 7648SOL    HW224386   7.863   1.382   4.857 -1.5600 -0.9103 -0.5525
 7649SOL     OW24387   6.072   2.005   8.136  0.5683  0.3249 -0.3457
 7649SOL    HW124388   6.067   1.922   8.183  0.4361  0.5958  0.1264
 7649SOL    HW224389   6.039   1.985   8.048  0.5617 -0.1239 -0.2446
 7650SOL     OW24390   1.762   3.765   2.849  0.1787 -0.3241 -0.1844
 7650SOL    HW124391   1.846   3.809   2.831 -0.1847  0.2156 -0.6071
 7650SOL    HW224392   1.719   3.760   2.763 -0.9270  0.9084  0.2590
 7651SOL     OW24393   2.313   5.611   8.251 -0.0283 -0.0787 -0.2942
 7651SOL    HW124394   2.221   5.589   8.239 -0.2153  1.1506 -1.4588
 7651SOL    HW224395   2.311   5.698   8.292  0.6161 -0.1750 -0.0518
 7652SOL     OW24396   3.837   4.180  11.322  0.2073  0.0667  0.6442
 7652SOL    HW124397   3.801   4.214  11.240  0.3976  0.2437  0.6351
 7652SOL    HW224398   3.768   4.122  11.355  0.4416 -0.6091 -0.0311
 7653SOL     OW24399   2.906   0.250   5.556  0.3532 -0.4192  0.1111
 7653SOL    HW124400   2.822   0.256   5.510  0.7894  0.2199 -0.6275
 7653SOL    HW224401   2.883   0.258   5.649 -0.3693  0.2326 -0.1084
 7654SOL     OW24402   6.961   1.733   5.821 -0.5221  0.1432 -0.3462
 7654SOL    HW124403   6.929   1.773   5.741 -1.3464  1.5267  0.6202
 7654SOL    HW224404   6.994   1.807   5.873 -1.2331 -0.5254  1.1217
 7655SOL     OW24405   2.261   6.400   5.737  0.4187  0.2059 -0.0636
 7655SOL    HW124406   2.228   6.488   5.753  0.4041  0.3383 -0.8125
 7655SOL    HW224407   2.201   6.343   5.786 -1.3469  0.3918 -1.9017
 7656SOL     OW24408   6.302   0.141   4.263 -0.2311 -0.1214 -0.4708
 7656SOL    HW124409   6.305   0.064   4.206  1.5860  0.0522 -0.6598
 7656SOL    HW224410   6.284   0.214   4.205 -0.0690 -0.1539 -0.5592
 7657SOL     OW24411   5.812   4.261   4.038  0.0750 -0.1300 -0.0108
 7657SOL    HW124412   5.735   4.314   4.057 -0.3923 -0.4924 -0.8631
 7657SOL    HW224413   5.782   4.196   3.975  1.1996  0.0719 -0.7865
 7658SOL     OW24414   7.959   7.802   2.988 -1.0599 -0.1153 -0.3752
 7658SOL    HW124415   7.932   7.851   2.910 -0.3345  0.7264 -0.0969
 7658SOL    HW224416   7.993   7.719   2.953  0.7073  0.8641 -1.1008
 7659SOL     OW24417   7.932   1.609  11.568 -0.0271 -0.0096  0.2597
 7659SOL    HW124418   7.961   1.662  11.642 -1.3492  1.3573 -0.1464
 7659SOL    HW224419   7.860   1.659  11.529  0.9258 -0.4271 -2.2427
 7660SOL     OW24420   7.297   7.753  10.960  0.5138 -0.2978 -0.5136
 7660SOL    HW124421   7.249   7.801  10.892  0.7310 -0.3064 -0.6732
 7660SOL    HW224422   7.329   7.674  10.917  0.6263 -0.3188 -0.3935
 7661SOL     OW24423   3.060   4.758   2.836 -0.3193  0.0828  0.0776
 7661SOL    HW124424   2.986   4.810   2.870 -0.5719  1.1293 -1.9337
 7661SOL    HW224425   3.137   4.800   2.874 -0.6495  0.1848  0.6618
 7662SOL     OW24426   0.459   6.138   7.484 -0.3010 -0.0523  0.4770
 7662SOL    HW124427   0.547   6.175   7.491 -0.6200  1.1303 -1.0799
 7662SOL    HW224428   0.471   6.057   7.435 -0.1264  0.5172 -0.4667
 7663SOL     OW24429   4.132   5.853   1.816  0.3198 -0.2539  0.1635
 7663SOL    HW124430   4.135   5.862   1.721  3.4431  1.0262  0.2791
 7663SOL    HW224431   4.200   5.788   1.836 -0.0572 -0.2453  1.5512
 7664SOL     OW24432   6.545   5.347  11.912 -1.1818  0.1958  0.2051
 7664SOL    HW124433   6.461   5.310  11.884 -1.7366  1.0018  0.7339
 7664SOL    HW224434   6.523   5.400  11.989 -0.2620  0.8101  0.0638
 7665SOL     OW24435   4.366   2.886   1.045 -0.0751  0.6872  0.6763
 7665SOL    HW124436   4.309   2.827   1.094 -1.2410  2.5181  1.6094
 7665SOL    HW224437   4.448   2.887   1.095 -0.0432 -0.1008  0.6546
 7666SOL     OW24438   7.031   1.539   1.428 -1.2049  0.0318  0.2867
 7666SOL    HW124439   7.082   1.593   1.488  1.1360 -1.2572 -0.3767
 7666SOL    HW224440   7.043   1.450   1.460 -1.7296 -0.4662 -0.8364
 7667SOL     OW24441   1.871   3.241   7.218 -0.0018 -0.4645  0.4466
 7667SOL    HW124442   1.840   3.296   7.290  0.2437  0.5445 -0.2000
 7667SOL    HW224443   1.940   3.293   7.176  1.7777 -2.1428  1.1177
 7668SOL     OW24444   3.592   2.786   3.753 -0.3491  0.6319 -0.0256
 7668SOL    HW124445   3.640   2.725   3.697 -0.6137  0.3892  0.0121
 7668SOL    HW224446   3.621   2.765   3.842 -1.2520 -0.1890  0.0983
 7669SOL     OW24447   7.462   7.335   5.098 -0.0235 -0.2220 -0.3075
 7669SOL    HW124448   7.505   7.344   5.183  0.7927  0.7557 -0.8029
 7669SOL    HW224449   7.372   7.313   5.119  0.4315 -1.1317  0.7824
 7670SOL     OW24450   7.395   7.859   1.364 -0.6110  0.1769  0.4178
 7670SOL    HW124451   7.306   7.828   1.384 -0.3206 -1.5810 -0.8428
 7670SOL    HW224452   7.452   7.802   1.415 -0.1262 -0.2412 -0.5806
 7671SOL     OW24453   7.149   5.382   6.366 -0.0242 -1.0635 -0.1935
 7671SOL    HW124454   7.213   5.316   6.336  0.9551 -0.5135  0.6076
 7671SOL    HW224455   7.179   5.464   6.326 -2.4170 -1.3584 -2.8894
 7672SOL     OW24456   3.313   6.901  10.389 -0.0735 -0.2253 -0.2229
 7672SOL    HW124457   3.401   6.898  10.424 -0.2138  1.6537  0.3503
 7672SOL    HW224458   3.269   6.971  10.437 -1.7269 -0.7736 -0.8506
 7673SOL     OW24459   1.124   0.649   2.966  0.1976  0.2706  0.7030
 7673SOL    HW124460   1.206   0.628   2.923  0.7023 -0.5898  2.0443
 7673SOL    HW224461   1.068   0.572   2.952 -1.3365  1.7588 -2.2845
 7674SOL     OW24462   6.633   1.208   3.125 -0.0169  0.6459  0.0151
 7674SOL    HW124463   6.670   1.271   3.062  1.3352 -0.0466  0.0734
 7674SOL    HW224464   6.542   1.199   3.098  0.7649 -0.4694 -2.6198
 7675SOL     OW24465   4.268   5.067   2.038  0.1681  0.3123  0.3541
 7675SOL    HW124466   4.324   4.990   2.033 -0.1435 -0.0321  1.6346
 7675SOL    HW224467   4.182   5.033   2.063 -0.5820  0.8591 -1.3052
 7676SOL     OW24468   6.271   1.999  10.437 -0.2557  0.4408 -0.2932
 7676SOL    HW124469   6.217   2.025  10.362 -0.1156  0.8615 -0.2517
 7676SOL    HW224470   6.360   1.994  10.402 -0.3962 -0.8369 -0.4982
 7677SOL     OW24471   4.640   3.518   9.755 -0.2965 -0.2098  0.1979
 7677SOL    HW124472   4.563   3.464   9.770 -0.9383  0.7499  0.4800
 7677SOL    HW224473   4.649   3.522   9.659 -2.7468  2.4841 -0.0795
 7678SOL     OW24474   6.871   6.731   8.055  0.0195 -0.2350 -0.0067
 7678SOL    HW124475   6.914   6.747   8.139  1.6916 -1.1556 -0.6381
 7678SOL    HW224476   6.912   6.651   8.022 -0.9964 -0.1958 -1.4579
 7679SOL     OW24477   3.377   1.982   2.467  0.8106  0.2529 -0.3727
 7679SOL    HW124478   3.340   1.894   2.477 -0.3377  0.7448 -0.1593
 7679SOL    HW224479   3.472   1.969   2.470  0.6546 -0.9895 -0.4607
 7680SOL     OW24480   4.797   3.872   6.552 -0.3093 -0.0405  0.1173
 7680SOL    HW124481   4.844   3.839   6.475 -0.3215 -1.8323  0.8369
 7680SOL    HW224482   4.726   3.809   6.565 -2.7732  2.3524 -0.7003
 7681SOL     OW24483   6.740   5.971   1.316 -0.4837 -0.0963  0.7266
 7681SOL    HW124484   6.679   6.010   1.379  2.0460  1.4998  2.3538
 7681SOL    HW224485   6.793   5.911   1.368 -0.3051 -1.0859 -0.5463
 7682SOL     OW24486   5.079   3.042  11.894 -0.2321 -0.0587 -0.5076
 7682SOL    HW124487   5.053   3.120  11.846  1.9847 -0.1729 -2.0420
 7682SOL    HW224488   5.157   3.068  11.941 -0.3597 -0.9463  0.2163
 7683SOL     OW24489   6.453   1.241   5.955 -0.6962  0.5139  0.4037
 7683SOL    HW124490   6.462   1.336   5.963 -2.3097  0.9650 -1.9085
 7683SOL    HW224491   6.422   1.212   6.041  1.6299  1.7305  1.7504
 7684SOL     OW24492   3.970   6.061   8.958 -1.0044  0.1262 -0.1626
 7684SOL    HW124493   3.876   6.050   8.947 -1.0450  0.1919  0.1055
 7684SOL    HW224494   3.983   6.155   8.969 -0.9012  0.1249 -0.2720
 7685SOL     OW24495   3.028   7.450  11.444 -0.1874 -0.2082  0.3049
 7685SOL    HW124496   2.948   7.402  11.465 -1.3661  0.9882 -1.1478
 7685SOL    HW224497   3.031   7.522  11.507  0.7342 -1.2448  1.4838
 7686SOL     OW24498   6.351   3.358   3.677 -0.2796  0.7561  0.7022
 7686SOL    HW124499   6.305   3.292   3.625 -1.6810  1.3190  1.1761
 7686SOL    HW224500   6.416   3.396   3.618 -0.7982  0.3224 -0.1537
 7687SOL     OW24501   2.979   3.493   6.293 -0.0377 -0.2651 -0.1683
 7687SOL    HW124502   3.018   3.576   6.319  1.6039 -0.7021 -1.1399
 7687SOL    HW224503   2.955   3.451   6.376  2.2149 -0.2683  0.5518
 7688SOL     OW24504   4.762   0.004   3.706 -1.0888  0.1725 -0.3232
 7688SOL    HW124505   4.722  -0.083   3.701 -1.9330  0.5417 -0.2983
 7688SOL    HW224506   4.707   0.051   3.770 -0.4830  0.6397 -0.1382
 7689SOL     OW24507   2.543   5.504   9.324 -0.2016  0.2950 -0.3294
 7689SOL    HW124508   2.558   5.438   9.255 -0.1438 -0.5640  0.4856
 7689SOL    HW224509   2.626   5.508   9.372 -1.2334 -1.6602  1.8100
 7690SOL     OW24510   6.308   4.843  10.148  0.4033  0.3907 -0.2780
 7690SOL    HW124511   6.398   4.874  10.156 -0.6958  3.7998  0.3892
 7690SOL    HW224512   6.292   4.794  10.229  1.3009  0.6780  0.0880
 7691SOL     OW24513   0.834   5.495   8.481  0.5931 -0.0292 -0.4512
 7691SOL    HW124514   0.868   5.578   8.448  0.2408  0.2024 -0.2309
 7691SOL    HW224515   0.911   5.451   8.519  0.4212  1.1452  1.4071
 7692SOL     OW24516   3.602   6.421   7.638  0.3678  0.1123  0.4489
 7692SOL    HW124517   3.696   6.425   7.656  0.5093  1.4801 -0.4950
 7692SOL    HW224518   3.562   6.479   7.703  0.1376 -0.5585  0.9256
 7693SOL     OW24519   3.550   2.314   7.168 -0.6857 -0.0070  0.2015
 7693SOL    HW124520   3.620   2.329   7.104 -0.6119  0.5672  0.4041
 7693SOL    HW224521   3.586   2.249   7.228  0.7417  2.0920  1.8058
 7694SOL     OW24522   1.481   4.387   4.261  0.3850  0.1211 -0.2334
 7694SOL    HW124523   1.395   4.387   4.218 -0.0553  0.5838  0.6237
 7694SOL    HW224524   1.542   4.362   4.192 -0.2884  0.9738 -1.1727
 7695SOL     OW24525   6.762   4.241   8.511 -0.4783  0.1334 -0.1337
 7695SOL    HW124526   6.808   4.182   8.452 -0.6210 -0.3101  0.1925
 7695SOL    HW224527   6.830   4.297   8.547 -0.2410 -0.2777  0.0665
 7696SOL     OW24528   6.216   6.423  11.116  0.3478  0.2539 -0.5195
 7696SOL    HW124529   6.159   6.362  11.163 -1.0090  1.5019 -0.4883
 7696SOL    HW224530   6.180   6.427  11.028  2.1972 -1.1883 -1.4231
 7697SOL     OW24531   6.087   0.163   6.285 -0.0350  0.2262 -0.3686
 7697SOL    HW124532   6.162   0.104   6.275  1.0182  1.4855 -0.1440
 7697SOL    HW224533   6.051   0.142   6.371 -0.0444 -0.4881 -0.5417
 7698SOL     OW24534   1.516   5.376   7.539  0.8775 -0.4641  0.4804
 7698SOL    HW124535   1.604   5.359   7.572  1.2375 -0.7487 -0.5709
 7698SOL    HW224536   1.508   5.319   7.462 -0.1554 -0.3065  0.4554
 7699SOL     OW24537   6.233   1.825   8.519  0.2900 -0.1691  0.2151
 7699SOL    HW124538   6.142   1.825   8.550 -0.0130  2.0662 -0.5374
 7699SOL    HW224539   6.285   1.805   8.597 -0.7519  0.2506  1.0340
 7700SOL     OW24540   0.063   5.251   3.200  0.2106  0.7874 -0.6143
 7700SOL    HW124541   0.086   5.204   3.281 -2.1593 -0.9429 -0.8205
 7700SOL    HW224542   0.138   5.237   3.142  0.6651 -0.5996  0.2470
 7701SOL     OW24543   0.493   2.251  11.507 -0.0404 -0.1416  0.4856
 7701SOL    HW124544   0.422   2.311  11.483  0.1787  0.2234  0.7537
 7701SOL    HW224545   0.472   2.223  11.597 -0.2349 -0.6039  0.3006
 7702SOL     OW24546   0.500   6.359   3.479 -0.5534 -0.1382 -0.1772
 7702SOL    HW124547   0.425   6.417   3.479 -0.2799  0.2193 -0.0769
 7702SOL    HW224548   0.463   6.272   3.495 -0.9501  0.0222 -0.2101
 7703SOL     OW24549   0.801   3.616   4.082  0.6826 -0.5131  0.4540
 7703SOL    HW124550   0.823   3.603   3.990  1.6402 -2.0205  0.8725
 7703SOL    HW224551   0.882   3.597   4.129 -0.2520 -1.5333  1.7180
 7704SOL     OW24552   7.870   5.243  11.528 -0.2159  0.0206 -0.5155
 7704SOL    HW124553   7.811   5.217  11.457 -0.3916 -0.0614 -0.3408
 7704SOL    HW224554   7.941   5.288  11.484 -0.5362  0.3482 -0.7036
 7705SOL     OW24555   4.932   6.495   7.042  0.9308 -0.1164 -1.0257
 7705SOL    HW124556   4.984   6.533   6.970 -0.7440  0.8510 -1.8081
 7705SOL    HW224557   4.942   6.557   7.114 -0.7285  1.2574 -1.8706
 7706SOL     OW24558   7.218   6.883   4.452  0.5191 -0.3355 -0.1502
 7706SOL    HW124559   7.141   6.895   4.396 -0.6024 -0.8746  1.2316
 7706SOL    HW224560   7.253   6.971   4.465 -0.7112  0.0928  0.3607
 7707SOL     OW24561   1.762   2.184   8.037  0.3547  0.2651  0.0786
 7707SOL    HW124562   1.765   2.108   7.979 -0.9637 -0.3220  0.7572
 7707SOL    HW224563   1.811   2.252   7.989 -1.3151  0.0469 -2.0762
 7708SOL     OW24564   6.302   0.442   3.827  0.4447 -0.1565  0.0159
 7708SOL    HW124565   6.331   0.462   3.738 -0.0717 -0.9785 -0.3443
 7708SOL    HW224566   6.241   0.513   3.849  1.8503  0.9964  0.3804
 7709SOL     OW24567   0.093   1.888   7.934  0.8175 -0.3742  0.2545
 7709SOL    HW124568   0.047   1.806   7.918 -0.1388  0.3753 -1.0091
 7709SOL    HW224569   0.172   1.862   7.981  0.2733 -1.9523  0.3527
 7710SOL     OW24570   5.157   2.736   8.466  0.2146 -0.0578 -0.2449
 7710SOL    HW124571   5.178   2.684   8.388 -1.6905 -0.1056 -0.7604
 7710SOL    HW224572   5.165   2.674   8.538 -0.5245 -0.6781 -0.6885
 7711SOL     OW24573   4.609   5.676  10.901 -0.0823  0.2138 -0.1546
 7711SOL    HW124574   4.687   5.656  10.849 -0.5801  0.6769 -1.1022
 7711SOL    HW224575   4.539   5.628  10.858 -0.2626 -0.5283  0.9346
 7712SOL     OW24576   5.853   0.564   2.220  0.1430  0.3892  0.4464
 7712SOL    HW124577   5.914   0.553   2.147 -0.6468  0.4383 -0.2289
 7712SOL    HW224578   5.880   0.499   2.284 -0.2984 -0.9217 -0.6675
 7713SOL     OW24579   3.796   2.471   8.187 -0.3576 -0.4577  0.1816
 7713SOL    HW124580   3.860   2.407   8.218  1.7534  0.9114 -1.0767
 7713SOL    HW224581   3.714   2.445   8.228  0.9183 -2.5019  1.6231
 7714SOL     OW24582   1.429   6.060   7.003 -0.6589 -0.3017 -0.1270
 7714SOL    HW124583   1.469   6.006   6.934  0.9256  0.0320  0.4743
 7714SOL    HW224584   1.459   6.019   7.085 -1.5146  0.0285  0.3614
 7715SOL     OW24585   4.221   6.946  10.601  0.7724 -0.0013  0.1585
 7715SOL    HW124586   4.192   7.035  10.619  0.0836  0.2464 -1.8868
 7715SOL    HW224587   4.196   6.896  10.679 -0.3763  1.2630  0.6351
 7716SOL     OW24588   4.130   2.835   9.477  0.3808 -0.9998 -0.5337
 7716SOL    HW124589   4.188   2.883   9.537  0.1352 -0.6851 -0.5448
 7716SOL    HW224590   4.105   2.900   9.411  0.9227 -1.4286 -1.1759
 7717SOL     OW24591   4.996   0.472   0.196  0.0694  0.0297  0.2396
 7717SOL    HW124592   5.074   0.518   0.164 -0.1886  0.1066 -0.2830
 7717SOL    HW224593   4.923   0.517   0.154 -0.2198 -0.5060  0.1621
 7718SOL     OW24594   2.895   7.385   9.998 -0.0097 -0.2470  0.5809
 7718SOL    HW124595   2.918   7.371   9.906 -0.1752 -0.0880  0.5138
 7718SOL    HW224596   2.947   7.462  10.024 -1.4511  0.9644  0.0385
 7719SOL     OW24597   0.078   5.611   7.395  0.5062  0.1070  0.0072
 7719SOL    HW124598   0.172   5.604   7.378  0.5014  0.6030 -0.2373
 7719SOL    HW224599   0.065   5.561   7.475  1.5086  2.5160  1.8018
 7720SOL     OW24600   0.519   5.445  10.428  1.1010  0.2214 -0.5581
 7720SOL    HW124601   0.439   5.497  10.420  1.1045  0.4721  0.8768
 7720SOL    HW224602   0.490   5.364  10.470  1.6191  0.3484  0.0450
 7721SOL     OW24603   5.618   7.825  10.062  0.5421 -0.4141 -0.5960
 7721SOL    HW124604   5.697   7.786  10.024  0.3043 -1.6025  0.0851
 7721SOL    HW224605   5.594   7.767  10.134 -0.8854 -0.0008 -0.7044
 7722SOL     OW24606   5.754   4.071   2.676 -0.4398 -0.2781  0.5823
 7722SOL    HW124607   5.742   4.156   2.717 -0.7028 -0.2446  0.4376
 7722SOL    HW224608   5.822   4.028   2.729  0.6487  0.5301 -0.1182
 7723SOL     OW24609   1.099   4.360   0.582  0.8743 -0.2076  0.3263
 7723SOL    HW124610   1.114   4.269   0.607 -0.5472 -0.3678  0.6968
 7723SOL    HW224611   1.011   4.379   0.614  0.0229  0.4331 -2.1863
 7724SOL     OW24612   5.829   6.985   5.613  0.0620 -0.0057 -0.2954
 7724SOL    HW124613   5.803   7.072   5.585  1.9309  0.3616 -0.9906
 7724SOL    HW224614   5.873   6.999   5.697 -0.5621 -0.4236  0.1110
 7725SOL     OW24615   7.055   4.268   5.299 -0.1961 -0.3934  0.2399
 7725SOL    HW124616   6.995   4.272   5.374  0.2219  0.4747  0.5387
 7725SOL    HW224617   7.140   4.244   5.337 -0.4889 -2.4936 -0.2867
 7726SOL     OW24618   6.422   2.542  10.545  0.7541  0.1265  0.5822
 7726SOL    HW124619   6.381   2.458  10.526  2.6075 -1.1776  1.9930
 7726SOL    HW224620   6.376   2.604  10.489 -0.6326 -1.8154 -0.5579
 7727SOL     OW24621   1.894   4.260   1.617 -0.4123  0.1188  0.6510
 7727SOL    HW124622   1.879   4.206   1.539  0.8781  1.4800 -0.6009
 7727SOL    HW224623   1.811   4.305   1.632 -0.1331  1.3928 -1.2283
 7728SOL     OW24624   1.593   5.808   3.417 -0.9062  0.1036  0.4641
 7728SOL    HW124625   1.506   5.847   3.426 -0.6082  0.7863  0.4395
 7728SOL    HW224626   1.611   5.771   3.503 -1.4353 -0.5186  0.3223
 7729SOL     OW24627   1.647   4.358   1.608 -0.5714 -0.0994  0.1952
 7729SOL    HW124628   1.630   4.432   1.667 -1.3938  0.6166 -0.9151
 7729SOL    HW224629   1.566   4.345   1.560  0.1829 -0.4453 -1.0323
 7730SOL     OW24630   7.659   7.839  11.995  0.1251  0.1906 -0.2961
 7730SOL    HW124631   7.720   7.885  12.053 -0.8322 -0.6341  1.4594
 7730SOL    HW224632   7.578   7.890  12.001  0.3456  0.7967 -1.9345
 7731SOL     OW24633   4.074   7.502  12.282 -0.3097 -0.0628  0.3617
 7731SOL    HW124634   4.102   7.552  12.359  0.5839  0.1093 -0.0572
 7731SOL    HW224635   4.137   7.526  12.214  0.7355 -2.4707  0.3880
 7732SOL     OW24636   3.976   5.314   5.552 -0.0116 -0.2724 -0.6365
 7732SOL    HW124637   3.931   5.379   5.607  0.0499 -0.5953 -0.2034
 7732SOL    HW224638   3.990   5.239   5.609 -1.6410 -1.3700 -1.5679
 7733SOL     OW24639   2.577   4.674   1.170  0.3950 -0.1067  0.6732
 7733SOL    HW124640   2.659   4.698   1.127 -1.0990  0.0455 -2.3587
 7733SOL    HW224641   2.539   4.757   1.198  0.8057 -0.0858  1.1763
 7734SOL     OW24642   3.846   2.479   1.475 -0.0580 -0.4254  0.3285
 7734SOL    HW124643   3.845   2.471   1.570  0.5799  0.5522  0.4234
 7734SOL    HW224644   3.816   2.393   1.444 -0.8589 -0.5511  1.4064
 7735SOL     OW24645   0.503   5.201   7.136  0.0328  0.2901  0.2819
 7735SOL    HW124646   0.598   5.192   7.144 -0.0070  0.4592  1.0855
 7735SOL    HW224647   0.489   5.244   7.052  0.6652  0.2040  0.1293
 7736SOL     OW24648   0.073   5.281  12.340 -0.1994 -0.0846  0.8246
 7736SOL    HW124649   0.086   5.324  12.256 -3.3714  2.7598  1.5510
 7736SOL    HW224650   0.006   5.215  12.324 -0.1374 -0.1825  0.9604
 7737SOL     OW24651   4.877   2.363   0.384 -0.2334 -0.5327  0.2801
 7737SOL    HW124652   4.808   2.298   0.393  0.0819 -0.8201  0.6404
 7737SOL    HW224653   4.856   2.408   0.302 -0.4834 -1.0508  0.0499
 7738SOL     OW24654   2.386   2.312   5.821  0.6022  0.1098  0.1421
 7738SOL    HW124655   2.315   2.253   5.847  0.0559 -0.3236 -2.1765
 7738SOL    HW224656   2.451   2.302   5.891 -1.0555 -0.4213  1.6875
 7739SOL     OW24657   1.155   6.425   4.156  0.1548  0.0609 -0.0293
 7739SOL    HW124658   1.183   6.454   4.243  1.1606  0.1280 -0.3562
 7739SOL    HW224659   1.074   6.377   4.171  0.5496 -0.3001  0.9982
 7740SOL     OW24660   5.732   2.700  11.771 -0.0407  0.3206  0.7121
 7740SOL    HW124661   5.775   2.723  11.853 -2.9396  0.6826  2.2564
 7740SOL    HW224662   5.704   2.783  11.734  0.3207  0.0788 -0.1293
 7741SOL     OW24663   7.838   3.518   8.893 -0.0780  0.3250 -0.1904
 7741SOL    HW124664   7.792   3.586   8.845 -1.6983 -0.4311  0.2303
 7741SOL    HW224665   7.783   3.440   8.884 -0.7075  0.2212  3.1459
 7742SOL     OW24666   7.618   6.097   1.044 -0.1651  0.2908  0.1251
 7742SOL    HW124667   7.587   6.019   0.998 -0.1562  1.5994 -2.2539
 7742SOL    HW224668   7.707   6.075   1.070 -0.5776 -0.9106  0.6113
 7743SOL     OW24669   5.944   5.012   1.320  0.1277 -0.2732 -0.3331
 7743SOL    HW124670   5.926   5.087   1.263  0.6351  0.5895  0.6111
 7743SOL    HW224671   5.967   4.941   1.260 -0.5867  0.2576 -1.2538
 7744SOL     OW24672   4.411   7.699  11.492  0.0990  0.5321 -0.1903
 7744SOL    HW124673   4.416   7.689  11.587 -0.6295  1.5232 -0.0290
 7744SOL    HW224674   4.484   7.756  11.469 -0.0561  0.7492 -0.1472
 7745SOL     OW24675   0.420   0.443  10.282  0.3714 -0.8592  0.1324
 7745SOL    HW124676   0.515   0.457  10.291  0.0671  0.8945  0.9699
 7745SOL    HW224677   0.402   0.462  10.190  1.1319 -3.4861 -0.6499
 7746SOL     OW24678   2.905   1.722  10.881 -0.5227 -0.3473 -0.3759
 7746SOL    HW124679   2.933   1.785  10.947 -0.1694 -0.0114 -0.8324
 7746SOL    HW224680   2.823   1.758  10.846 -0.9504 -0.7620  0.1962
 7747SOL     OW24681   6.916   1.756   8.921  0.5885 -0.0286  0.1564
 7747SOL    HW124682   6.970   1.678   8.924 -0.9010 -1.0747  1.9157
 7747SOL    HW224683   6.889   1.771   9.012 -1.3944  0.8784 -0.5107
 7748SOL     OW24684   7.738   3.396   2.950  0.1843 -0.1402 -0.3334
 7748SOL    HW124685   7.696   3.374   2.867  0.0606 -1.2458  0.0048
 7748SOL    HW224686   7.827   3.364   2.941  0.2644  0.0277 -0.1526
 7749SOL     OW24687   4.996   1.209   9.433  0.5349  0.0730  0.1851
 7749SOL    HW124688   5.086   1.184   9.453  0.5088  0.7968  1.2671
 7749SOL    HW224689   4.968   1.147   9.365  1.8133 -0.1984 -0.1092
 7750SOL     OW24690   7.519   6.228   8.944 -0.1625 -0.2376 -0.1593
 7750SOL    HW124691   7.455   6.279   8.993 -0.4352 -1.6236  1.0002
 7750SOL    HW224692   7.597   6.283   8.942 -0.4761  0.2728  0.9605
 7751SOL     OW24693   3.955   7.577   7.930  0.1857 -0.4161 -0.3160
 7751SOL    HW124694   3.948   7.517   7.856  0.2773  0.3270 -0.9460
 7751SOL    HW224695   3.967   7.663   7.889  0.3689 -0.0155  0.5697
 7752SOL     OW24696   0.559   7.841  12.082  0.3950  0.3461  0.0039
 7752SOL    HW124697   0.467   7.821  12.099  0.5379  0.0686  0.4779
 7752SOL    HW224698   0.584   7.901  12.152  1.2153 -1.4542  1.3204
 7753SOL     OW24699   0.118   6.150   5.680  0.7220  0.2070 -0.1709
 7753SOL    HW124700   0.055   6.084   5.653  0.0875 -0.2049  2.1476
 7753SOL    HW224701   0.066   6.229   5.694  0.7768  0.0149  1.2162
 7754SOL     OW24702   0.231   0.770  12.137  0.4224 -0.3801 -0.1924
 7754SOL    HW124703   0.310   0.716  12.141  1.6313  1.3718  1.0874
 7754SOL    HW224704   0.228   0.813  12.223 -2.2943 -0.8644  0.0380
 7755SOL     OW24705   4.000   5.940   8.592 -0.0620 -0.5684 -0.0622
 7755SOL    HW124706   3.923   5.975   8.637 -0.0183  0.9735 -1.1018
 7755SOL    HW224707   3.967   5.866   8.541 -0.8422  0.0129 -0.4155
 7756SOL     OW24708   5.911   7.830   6.733 -0.5101 -0.4758  0.1398
 7756SOL    HW124709   5.954   7.769   6.793  0.8660 -0.6586 -0.9793
 7756SOL    HW224710   5.829   7.786   6.708  0.0355 -1.4575  0.0482
 7757SOL     OW24711   1.300   2.618   8.691  0.2054 -0.4130  0.3613
 7757SOL    HW124712   1.315   2.683   8.759  1.3510 -1.5980  1.3002
 7757SOL    HW224713   1.273   2.539   8.739 -1.2991 -0.6135 -0.7527
 7758SOL     OW24714   3.402   6.522   9.822 -0.0321  0.2664  0.1421
 7758SOL    HW124715   3.322   6.568   9.847  0.9048  0.5617  2.8945
 7758SOL    HW224716   3.389   6.432   9.854 -0.3711 -0.4770 -1.9538
 7759SOL     OW24717   1.626   0.617   0.298  0.0715 -0.0088  0.2398
 7759SOL    HW124718   1.656   0.660   0.378 -2.6196 -0.8359  1.7956
 7759SOL    HW224719   1.671   0.533   0.297 -0.3280 -0.2429  1.2345
 7760SOL     OW24720   4.787   5.243   2.609  0.5027  0.4624 -0.5591
 7760SOL    HW124721   4.839   5.257   2.530  0.1721 -1.0810 -1.0718
 7760SOL    HW224722   4.786   5.148   2.621  1.2813  0.6877  1.8236
 7761SOL     OW24723   4.789   1.531   7.308  0.0181  0.0605 -0.3144
 7761SOL    HW124724   4.879   1.563   7.314  0.0025  0.1554 -0.5756
 7761SOL    HW224725   4.751   1.549   7.395  0.7527 -1.5297  0.3695
 7762SOL     OW24726   5.543   0.386   7.954 -0.1532 -0.1939 -0.3582
 7762SOL    HW124727   5.503   0.388   8.041 -0.5346  0.1760 -0.5359
 7762SOL    HW224728   5.613   0.451   7.958 -0.0958 -0.2606 -0.2918
 7763SOL     OW24729   2.147   3.095   2.680 -0.4613 -0.2522  0.2958
 7763SOL    HW124730   2.064   3.141   2.686 -0.7532 -0.7548  0.1294
 7763SOL    HW224731   2.213   3.164   2.673 -1.0157  0.1261 -1.4987
 7764SOL     OW24732   1.073   3.660   1.987  0.1318  0.0397  0.2174
 7764SOL    HW124733   1.058   3.724   2.057 -0.0859 -0.0862  0.2884
 7764SOL    HW224734   1.118   3.709   1.919 -1.4208  0.6769 -0.4044
 7765SOL     OW24735   5.693   7.241   5.610  0.0195  0.3407  0.3654
 7765SOL    HW124736   5.655   7.199   5.688  0.7152  1.7703  1.5183
 7765SOL    HW224737   5.627   7.306   5.584  0.1015  0.3535  0.1927
 7766SOL     OW24738   6.269   7.717   4.724  0.1987 -0.2801 -0.1136
 7766SOL    HW124739   6.361   7.743   4.726 -0.9421  4.6345  1.3497
 7766SOL    HW224740   6.246   7.716   4.631  1.5634 -0.9562 -0.4597
 7767SOL     OW24741   6.267   1.261  11.629  0.5276  0.9203 -0.1074
 7767SOL    HW124742   6.207   1.331  11.657  0.9261  0.6115  1.6241
 7767SOL    HW224743   6.317   1.239  11.707  1.2971 -0.4489 -0.9383
 7768SOL     OW24744   0.123   6.655   3.203  0.3525 -0.2646 -0.2177
 7768SOL    HW124745   0.155   6.586   3.144 -0.9564  0.0250 -1.3083
 7768SOL    HW224746   0.056   6.701   3.153 -0.4649  0.3161  1.3364
 7769SOL     OW24747   7.156   4.043   9.437 -0.1084 -0.2170  0.2018
 7769SOL    HW124748   7.117   4.074   9.356 -0.5359 -0.7230  0.2105
 7769SOL    HW224749   7.239   4.003   9.410  0.3393  0.7192  0.1662
 7770SOL     OW24750   0.189   7.455   1.562  0.2493  0.3156 -0.2448
 7770SOL    HW124751   0.279   7.424   1.550 -0.0747 -0.8214  0.0593
 7770SOL    HW224752   0.193   7.508   1.641  0.4025 -0.9575  0.6446
 7771SOL     OW24753   7.681   1.104   1.980 -0.2762  0.5423  0.6125
 7771SOL    HW124754   7.737   1.147   1.915  1.3301  0.4421  1.8606
 7771SOL    HW224755   7.676   1.165   2.053 -1.1603  0.2052  0.8499
 7772SOL     OW24756   0.364   6.045  11.465  0.0840  0.1126  0.3864
 7772SOL    HW124757   0.416   6.124  11.454  0.1063  0.0581  0.0835
 7772SOL    HW224758   0.290   6.071  11.521 -0.7987  0.7542 -1.0235
 7773SOL     OW24759   4.914   3.163   4.356  0.4472 -0.3069  0.6080
 7773SOL    HW124760   4.932   3.134   4.267  1.9620  0.5175  0.6167
 7773SOL    HW224761   4.877   3.085   4.399  0.0347 -0.8134 -0.6287
 7774SOL     OW24762   4.438   4.979   6.776  0.5679  0.6156  0.1907
 7774SOL    HW124763   4.455   4.909   6.713  0.6579 -0.1098  1.0149
 7774SOL    HW224764   4.399   5.049   6.723  1.3055  0.3081 -0.7988
 7775SOL     OW24765   6.749   6.238   1.158 -0.3383  0.0154 -0.2661
 7775SOL    HW124766   6.698   6.245   1.239  2.1147  0.8123  1.3196
 7775SOL    HW224767   6.768   6.145   1.149  0.7066  0.0703  1.0274
 7776SOL     OW24768   5.857   6.973   8.259 -0.4583  0.1898 -0.1240
 7776SOL    HW124769   5.951   6.962   8.272  0.0250  1.9037 -1.7708
 7776SOL    HW224770   5.823   6.992   8.347  0.5766 -1.1203  0.6050
 7777SOL     OW24771   7.039   7.932   8.640  0.0702  0.0311 -0.1420
 7777SOL    HW124772   6.960   7.986   8.648 -0.5926 -1.1278  1.5110
 7777SOL    HW224773   7.111   7.995   8.644 -0.7266  0.9946 -0.4790
 7778SOL     OW24774   6.920   2.497   0.916  0.0102  0.0005 -0.0601
 7778SOL    HW124775   6.914   2.531   1.005  0.6042  0.4735 -0.1990
 7778SOL    HW224776   7.003   2.449   0.913  0.7781  1.3247 -0.7999
 7779SOL     OW24777   1.656   4.937   8.016  0.1193 -0.4123  1.0056
 7779SOL    HW124778   1.617   4.964   7.933  1.6386  1.5524  0.8679
 7779SOL    HW224779   1.594   4.966   8.083 -0.1102 -0.1035  0.6614
 7780SOL     OW24780   3.984   7.175   7.199  0.1472 -0.5514  0.5226
 7780SOL    HW124781   3.912   7.116   7.176 -0.9067  1.8006 -2.8421
 7780SOL    HW224782   4.060   7.138   7.155  0.0037 -0.6053  0.3193
 7781SOL     OW24783   0.641   1.385   4.985 -0.5182  0.2222  0.3732
 7781SOL    HW124784   0.652   1.297   5.021 -1.5986 -0.0736  0.0267
 7781SOL    HW224785   0.675   1.443   5.053 -2.3042 -0.3405  1.8263
 7782SOL     OW24786   4.351   6.831   8.996 -0.2799 -0.0992  0.3484
 7782SOL    HW124787   4.441   6.798   8.998 -0.1241  0.3459  1.1703
 7782SOL    HW224788   4.306   6.780   9.064 -0.4386  0.2589  0.5112
 7783SOL     OW24789   0.641   3.233   4.717 -0.6629 -0.8614  0.2585
 7783SOL    HW124790   0.552   3.265   4.726 -0.0527  0.6817  1.0970
 7783SOL    HW224791   0.656   3.230   4.622 -1.9934 -2.4035  0.0442
 7784SOL     OW24792   6.213   0.181  11.548  0.3106 -0.5645  0.1233
 7784SOL    HW124793   6.192   0.275  11.549  2.2324 -0.0984  0.3130
 7784SOL    HW224794   6.175   0.149  11.466 -4.1992 -0.6557  1.9412
 7785SOL     OW24795   2.661   3.707   5.660 -0.1111  0.0047  0.0921
 7785SOL    HW124796   2.638   3.719   5.568  0.1250  1.0866  0.1518
 7785SOL    HW224797   2.744   3.658   5.658  0.1108  0.3878 -0.2921
 7786SOL     OW24798   2.876   4.260   3.732  0.1705 -0.0780  0.1021
 7786SOL    HW124799   2.818   4.244   3.658  1.6100 -0.7862 -0.9035
 7786SOL    HW224800   2.908   4.174   3.757  1.2530  0.3472  0.2444
 7787SOL     OW24801   3.976   3.950  11.106  0.3356  0.3697  0.1634
 7787SOL    HW124802   3.932   3.874  11.143 -1.4872  1.2103 -0.1993
 7787SOL    HW224803   3.912   3.990  11.048  1.2682  2.1416  0.2647
 7788SOL     OW24804   4.367   0.946  12.307  0.1077  0.4657  0.1109
 7788SOL    HW124805   4.339   0.912  12.392  0.5034  0.2349  0.1475
 7788SOL    HW224806   4.365   1.041  12.318 -1.6452  0.4962 -0.1986
 7789SOL     OW24807   0.507   1.957   4.088 -0.0045 -0.1371 -0.2349
 7789SOL    HW124808   0.573   1.945   4.156  0.2801 -0.5209 -0.5795
 7789SOL    HW224809   0.446   1.884   4.100  1.6973 -2.0397 -2.2911
 7790SOL     OW24810   6.965   0.500   8.355 -0.7412  0.2101 -0.3529
 7790SOL    HW124811   7.022   0.496   8.432 -2.1106 -0.6131  0.6676
 7790SOL    HW224812   7.014   0.454   8.287  0.2964  0.5375  0.1423
 7791SOL     OW24813   7.326   4.974   9.980  0.0026 -0.3651  0.6294
 7791SOL    HW124814   7.399   5.031   9.956  0.2137 -0.2136  1.5741
 7791SOL    HW224815   7.283   5.019  10.053 -0.6994 -0.7267  0.4537
 7792SOL     OW24816   5.415   3.793   8.384  0.1990  0.2890 -0.0446
 7792SOL    HW124817   5.376   3.726   8.328  0.1477  0.3608 -0.0954
 7792SOL    HW224818   5.507   3.797   8.357  0.3925 -0.3068  0.4827
 7793SOL     OW24819   4.379   0.006   1.231  0.2563 -0.2520 -0.1357
 7793SOL    HW124820   4.429   0.036   1.155 -1.3410 -0.6075 -1.4060
 7793SOL    HW224821   4.301  -0.035   1.193 -0.2613 -1.0780  1.6986
 7794SOL     OW24822   3.526   0.846  12.378 -0.3266  0.4991 -0.0863
 7794SOL    HW124823   3.616   0.877  12.370 -0.0089 -0.0812  0.9924
 7794SOL    HW224824   3.535   0.752  12.398 -1.0173  0.9384  2.8292
 7795SOL     OW24825   4.576   3.670   4.891  0.0264 -0.2874  0.7194
 7795SOL    HW124826   4.492   3.670   4.846 -0.5819 -1.7303  1.7767
 7795SOL    HW224827   4.601   3.763   4.895 -0.0560 -0.0622 -2.1748
 7796SOL     OW24828   2.841   6.315   7.481 -0.0111  0.2560 -0.3652
 7796SOL    HW124829   2.908   6.252   7.455  1.1052  0.7901  1.0864
 7796SOL    HW224830   2.890   6.389   7.517 -1.3483  1.1839 -0.3728
 7797SOL     OW24831   7.724   4.465  12.069  0.7086 -0.1898  0.2487
 7797SOL    HW124832   7.724   4.541  12.012 -0.6904  0.1591  0.6703
 7797SOL    HW224833   7.735   4.390  12.010  0.0970  0.2191 -0.3933
 7798SOL     OW24834   3.479   7.215  11.782 -0.5035  0.1634  0.1383
 7798SOL    HW124835   3.526   7.240  11.702 -1.9634  0.6909 -0.5966
 7798SOL    HW224836   3.528   7.140  11.816 -0.4374 -0.7399 -1.8241
 7799SOL     OW24837   3.496   5.222   3.117 -0.2590  0.0423  0.8045
 7799SOL    HW124838   3.562   5.199   3.051  0.6595  0.8719  1.4042
 7799SOL    HW224839   3.523   5.309   3.148 -2.1756  0.8377  0.3929
 7800SOL     OW24840   3.426   7.333   7.655  0.1072 -0.5894 -0.7240
 7800SOL    HW124841   3.502   7.391   7.655 -0.4798  0.2018 -0.8565
 7800SOL    HW224842   3.443   7.270   7.725 -0.2638  1.1258  0.9989
 7801SOL     OW24843   2.091   1.261  10.551 -0.1359  0.0666 -0.2101
 7801SOL    HW124844   2.168   1.261  10.608  0.4157 -2.3087 -0.8615
 7801SOL    HW224845   2.042   1.183  10.576 -1.0163  0.1620 -1.5225
 7802SOL     OW24846   6.870   0.425  12.195 -0.3466  0.1290 -0.0434
 7802SOL    HW124847   6.886   0.519  12.186 -0.9230  0.3247  0.8769
 7802SOL    HW224848   6.950   0.391  12.236  0.0046  0.1432 -0.6908
 7803SOL     OW24849   6.399   2.721   5.795 -0.3572 -0.4112 -0.6043
 7803SOL    HW124850   6.314   2.682   5.818 -0.8749  1.1674  0.2785
 7803SOL    HW224851   6.435   2.661   5.730 -2.3407 -0.9083 -1.3348
 7804SOL     OW24852   5.291   6.522   4.332  0.6997 -0.1417  0.3096
 7804SOL    HW124853   5.380   6.549   4.312  1.5635 -1.7336  1.8146
 7804SOL    HW224854   5.253   6.597   4.378  1.7845 -0.0067  1.0217
 7805SOL     OW24855   3.464   1.912   8.177  0.0776  0.0655  0.1866
 7805SOL    HW124856   3.473   1.940   8.268 -4.5907  2.1249  0.2649
 7805SOL    HW224857   3.423   1.825   8.183  1.6038 -0.7157 -0.0730
 7806SOL     OW24858   2.495   6.841   1.677 -1.1294 -0.6749  0.0506
 7806SOL    HW124859   2.536   6.788   1.608 -1.4252 -0.7425 -0.0749
 7806SOL    HW224860   2.566   6.895   1.710 -0.7577 -1.3508  0.3790
 7807SOL     OW24861   6.570   1.127  12.281  0.2430  0.0346  0.4632
 7807SOL    HW124862   6.607   1.106  12.195 -1.6978 -1.0174 -0.2056
 7807SOL    HW224863   6.616   1.069  12.342  2.2579  1.4057  0.3302
 7808SOL     OW24864   0.546   2.580   5.285 -0.3052  0.3594 -0.3835
 7808SOL    HW124865   0.583   2.620   5.206 -1.2178  1.6883 -0.1659
 7808SOL    HW224866   0.472   2.529   5.253  1.5533 -2.2699 -0.8143
 7809SOL     OW24867   3.992   5.746   5.115  0.2593  0.2016  0.5235
 7809SOL    HW124868   4.038   5.786   5.041  1.7459 -1.6193  0.3746
 7809SOL    HW224869   4.011   5.652   5.107 -1.2004 -0.2843  2.0967
 7810SOL     OW24870   3.229   2.753  11.911 -0.0890  0.3085 -0.2617
 7810SOL    HW124871   3.174   2.689  11.956  0.6934 -0.5882 -0.5420
 7810SOL    HW224872   3.238   2.825  11.973 -1.2062  0.2783 -0.0453
 7811SOL     OW24873   7.275   4.226   3.748  0.6760  0.1362  0.4927
 7811SOL    HW124874   7.230   4.291   3.694 -0.3570 -0.7173  0.3024
 7811SOL    HW224875   7.304   4.275   3.825 -0.2977  0.7847  0.4628
 7812SOL     OW24876   1.265   6.816   8.716 -0.3936  0.4304  0.2058
 7812SOL    HW124877   1.324   6.890   8.699 -0.0230  0.2735  0.7849
 7812SOL    HW224878   1.178   6.851   8.696 -0.2120  0.9948  0.3710
 7813SOL     OW24879   5.330   0.993   2.081  0.2823 -0.5489  0.2453
 7813SOL    HW124880   5.413   1.035   2.059  0.4402 -0.6542  0.6421
 7813SOL    HW224881   5.343   0.956   2.168 -1.0968  2.0024  1.6629
 7814SOL     OW24882   7.465   0.305  10.591 -0.1409  0.4594 -0.1016
 7814SOL    HW124883   7.557   0.287  10.610 -0.1088 -0.1382 -0.7937
 7814SOL    HW224884   7.450   0.393  10.628  0.8676  0.8196 -0.5136
 7815SOL     OW24885   2.676   0.414   9.562  0.1467 -0.7582  0.4945
 7815SOL    HW124886   2.600   0.468   9.542  0.4086 -0.3304  0.6544
 7815SOL    HW224887   2.679   0.410   9.658  2.4566  2.3347  0.6968
 7816SOL     OW24888   6.889   6.767  10.128  0.2513 -0.2533 -0.0409
 7816SOL    HW124889   6.800   6.747  10.159  0.1495 -0.6540 -0.5868
 7816SOL    HW224890   6.879   6.778  10.033  0.8715 -0.8009 -0.1744
 7817SOL     OW24891   2.303   7.134   8.510 -0.0639  0.3840 -0.0578
 7817SOL    HW124892   2.250   7.212   8.495 -1.2273 -0.3158  0.3296
 7817SOL    HW224893   2.377   7.165   8.563  0.9585  1.7364 -2.1424
 7818SOL     OW24894   4.507   6.248   3.920  0.2591  0.1734 -0.2890
 7818SOL    HW124895   4.425   6.279   3.880  0.2603 -0.9030 -1.1901
 7818SOL    HW224896   4.537   6.178   3.862 -0.0380 -1.9045  1.8866
 7819SOL     OW24897   0.727   2.246   0.461  0.1260 -0.3764 -0.3358
 7819SOL    HW124898   0.784   2.172   0.440  0.6002  0.2828 -1.3798
 7819SOL    HW224899   0.687   2.221   0.545  2.0260 -0.7894  0.4856
 7820SOL     OW24900   6.357   2.197   3.714  0.0035 -0.1469  0.3387
 7820SOL    HW124901   6.328   2.265   3.654  1.8899  0.3953 -0.0427
 7820SOL    HW224902   6.349   2.235   3.801 -1.9017 -0.6149  0.4102
 7821SOL     OW24903   2.036   4.515   2.604 -0.6105  0.5319  0.3090
 7821SOL    HW124904   2.056   4.440   2.659 -0.6050  0.3516  0.0634
 7821SOL    HW224905   1.959   4.488   2.554 -0.2596  0.4689 -0.2041
 7822SOL     OW24906   2.263   5.814   6.886 -0.9019  0.2440 -0.7330
 7822SOL    HW124907   2.257   5.858   6.801 -1.6675  2.2036  0.2802
 7822SOL    HW224908   2.220   5.874   6.947  2.1458  0.3347  1.5749
 7823SOL     OW24909   2.538   4.725   5.364 -0.6150 -0.5234  0.5770
 7823SOL    HW124910   2.500   4.694   5.447 -3.6903  0.1750 -0.4164
 7823SOL    HW224911   2.471   4.784   5.329  1.8056  1.3722 -1.1308
 7824SOL     OW24912   7.056   6.600   7.657  0.0012 -0.1066  0.2839
 7824SOL    HW124913   7.061   6.689   7.692  0.0321 -0.1488  0.3874
 7824SOL    HW224914   7.080   6.544   7.731 -0.9524 -0.2513  0.5040
 7825SOL     OW24915   6.132   7.773   9.892 -0.1258 -0.2562  0.3934
 7825SOL    HW124916   6.092   7.848   9.848 -0.9678  0.0071  1.5578
 7825SOL    HW224917   6.117   7.699   9.832  0.9012  0.5246 -0.8579
 7826SOL     OW24918   1.216   5.712   2.156 -0.3505 -0.4826 -0.3673
 7826SOL    HW124919   1.210   5.804   2.131  2.2022  0.4116  1.8771
 7826SOL    HW224920   1.299   5.683   2.120 -0.2869 -1.3851  0.4711
 7827SOL     OW24921   7.184   5.188   1.607 -0.0991 -0.1776  0.1583
 7827SOL    HW124922   7.112   5.126   1.605  1.4418 -2.1158  0.8368
 7827SOL    HW224923   7.260   5.136   1.634  1.3245  1.9895  0.6541
 7828SOL     OW24924   5.373   7.077   9.714 -0.1789  0.1435 -0.1378
 7828SOL    HW124925   5.318   7.068   9.636 -0.0364 -0.3657 -0.1870
 7828SOL    HW224926   5.445   7.134   9.686  0.0496 -0.3025 -0.4886
 7829SOL     OW24927   0.868   4.362   9.706  0.2522  0.7678 -0.0183
 7829SOL    HW124928   0.779   4.349   9.739 -0.2555  1.2280 -1.1772
 7829SOL    HW224929   0.875   4.456   9.693  0.2323  0.5475 -1.7684
 7830SOL     OW24930   1.056   5.905   8.201  0.3266  0.2695  0.4816
 7830SOL    HW124931   1.111   5.982   8.214  0.7434  0.2778 -1.0700
 7830SOL    HW224932   1.043   5.902   8.106 -1.7858 -0.1395  0.7484
 7831SOL     OW24933   3.858   1.902   3.056  0.0272  0.0884 -0.0583
 7831SOL    HW124934   3.947   1.929   3.080 -0.0906  0.5205 -0.0954
 7831SOL    HW224935   3.870   1.834   2.991  0.3376  1.1182 -1.1136
 7832SOL     OW24936   6.546   7.291   7.672  0.0554 -0.2748 -0.2657
 7832SOL    HW124937   6.479   7.271   7.607 -0.1242  1.0248 -0.5105
 7832SOL    HW224938   6.617   7.332   7.622 -0.1598  0.8962  0.3518
 7833SOL     OW24939   4.131   5.588   0.371 -0.1429  0.2184  0.3047
 7833SOL    HW124940   4.146   5.537   0.451 -0.3969 -0.5600 -0.1316
 7833SOL    HW224941   4.060   5.648   0.395  0.5546  0.7976  0.9982
 7834SOL     OW24942   0.966   5.906   7.943  0.4202 -0.1224  0.1698
 7834SOL    HW124943   0.887   5.854   7.957  0.5578 -0.5920 -0.7162
 7834SOL    HW224944   1.021   5.851   7.888  0.4747  1.0636 -1.0059
 7835SOL     OW24945   1.519   0.778   0.825  0.2209 -0.6505 -0.4287
 7835SOL    HW124946   1.530   0.694   0.781  1.1861 -0.4679 -0.5559
 7835SOL    HW224947   1.601   0.791   0.873 -1.5289 -1.9258  3.3492
 7836SOL     OW24948   5.338   5.091   1.251  0.1589  0.1682 -0.2479
 7836SOL    HW124949   5.344   5.011   1.199  1.0921 -0.9267  1.4899
 7836SOL    HW224950   5.409   5.146   1.218  0.5139 -0.3637 -0.3848
 7837SOL     OW24951   4.431   7.090   6.926 -0.3174 -0.8053 -0.6538
 7837SOL    HW124952   4.443   7.178   6.891 -1.9272 -0.3415 -0.1126
 7837SOL    HW224953   4.404   7.038   6.851  0.2855 -0.7686 -0.9024
 7838SOL     OW24954   7.122   2.729   7.400 -0.2386 -0.2375 -0.1637
 7838SOL    HW124955   7.166   2.650   7.432 -2.6294 -1.6551 -0.1738
 7838SOL    HW224956   7.098   2.709   7.310  0.3266  1.0782 -0.6376
 7839SOL     OW24957   0.734   0.928   0.622 -0.2106 -0.4992 -0.1520
 7839SOL    HW124958   0.672   0.998   0.602 -0.6099 -0.4431  1.1332
 7839SOL    HW224959   0.775   0.906   0.539 -1.9373 -0.5146 -1.0237
 7840SOL     OW24960   7.960   5.222   5.680  0.1060  0.0537 -0.3729
 7840SOL    HW124961   7.945   5.178   5.763  1.5333  0.4127  0.0992
 7840SOL    HW224962   8.030   5.172   5.637  2.4355  2.2517  0.5837
 7841SOL     OW24963   5.154   7.478   1.495  0.2004  0.9564  0.0494
 7841SOL    HW124964   5.147   7.496   1.589  1.2980 -0.4692  0.4348
 7841SOL    HW224965   5.094   7.405   1.480  0.1669  1.0605 -0.3361
 7842SOL     OW24966   5.626   0.539   4.420  0.4198 -0.4549 -0.0374
 7842SOL    HW124967   5.533   0.522   4.434  0.4749 -0.2853  0.5753
 7842SOL    HW224968   5.648   0.607   4.484  1.2753 -1.4430  0.7463
 7843SOL     OW24969   4.751   7.651   6.074  0.0183  0.0807 -0.0123
 7843SOL    HW124970   4.677   7.592   6.082 -0.3352  0.4051 -0.7909
 7843SOL    HW224971   4.812   7.623   6.143 -0.6196 -0.4770  0.3351
 7844SOL     OW24972   6.941   6.455  11.077 -0.2823  0.6865 -0.5263
 7844SOL    HW124973   6.954   6.376  11.025  0.6930  1.5203 -1.6060
 7844SOL    HW224974   6.847   6.472  11.074 -0.4501 -0.2266 -0.5783
 7845SOL     OW24975   5.859   6.942  11.687  0.3747  0.4791 -0.7232
 7845SOL    HW124976   5.771   6.959  11.655  0.5732  1.3552 -0.8357
 7845SOL    HW224977   5.894   7.028  11.709  1.1565  0.1321 -0.5485
 7846SOL     OW24978   2.723   7.321   7.213  0.2710  0.2398  0.2343
 7846SOL    HW124979   2.635   7.338   7.180 -0.6317 -0.4496  2.1384
 7846SOL    HW224980   2.724   7.360   7.300  0.9034 -2.0516  1.3313
 7847SOL     OW24981   0.369   2.869   6.262  0.0935 -0.6363 -0.5774
 7847SOL    HW124982   0.286   2.902   6.296  0.0244  1.7128 -2.6991
 7847SOL    HW224983   0.344   2.803   6.198 -0.3256  1.1193 -2.3161
 7848SOL     OW24984   3.203   2.891   0.211  0.0863 -0.4693  0.4083
 7848SOL    HW124985   3.223   2.840   0.133  1.2705 -0.6061  0.7758
 7848SOL    HW224986   3.181   2.979   0.178 -0.2514 -0.7447 -0.1144
 7849SOL     OW24987   0.173   1.529   0.147  0.5814 -0.0833 -0.3544
 7849SOL    HW124988   0.198   1.606   0.197 -0.2703 -0.4026  0.5879
 7849SOL    HW224989   0.203   1.455   0.199 -0.1196 -0.4178 -0.4078
 7850SOL     OW24990   0.283   2.192  11.966 -0.3452  0.4820  0.3969
 7850SOL    HW124991   0.306   2.260  12.029 -0.6224 -0.5857  1.6785
 7850SOL    HW224992   0.207   2.148  12.004 -1.3606  0.6546 -1.3231
 7851SOL     OW24993   3.599   6.643   5.670  0.1265  0.3143  0.0056
 7851SOL    HW124994   3.646   6.663   5.589  2.1816  0.0065  1.0502
 7851SOL    HW224995   3.625   6.712   5.731  1.0025 -1.0729  1.2699
 7852SOL     OW24996   1.658   3.276   4.767 -0.1758 -0.5242 -0.1536
 7852SOL    HW124997   1.709   3.237   4.838  0.3328  0.5047  0.0723
 7852SOL    HW224998   1.631   3.202   4.713  0.5367 -1.1988  0.3912
 7853SOL     OW24999   2.162   6.869   2.867  0.4632  0.5666  0.0910
 7853SOL    HW125000   2.154   6.938   2.933  1.3428  1.0446 -0.2863
 7853SOL    HW225001   2.072   6.845   2.846  0.1281 -0.6204  2.5173
 7854SOL     OW25002   6.156   3.034   5.281  0.4587  0.7832 -0.1397
 7854SOL    HW125003   6.116   3.060   5.364  0.3427  1.8171 -0.4962
 7854SOL    HW225004   6.238   3.084   5.277  0.6460  0.4542 -0.4709
 7855SOL     OW25005   1.311   2.314   6.399 -0.6887 -0.2922  0.1219
 7855SOL    HW125006   1.227   2.342   6.436 -0.6224 -0.8318  0.6996
 7855SOL    HW225007   1.343   2.248   6.461  0.6807  0.6988  0.4940
 7856SOL     OW25008   3.401   3.312   3.188 -0.1331 -0.0886 -0.0680
 7856SOL    HW125009   3.495   3.314   3.171 -0.3447  3.5527 -1.8552
 7856SOL    HW225010   3.361   3.302   3.101 -1.4622 -1.2486  0.6222
 7857SOL     OW25011   1.664   2.366   8.982 -0.2071  0.4246 -0.6235
 7857SOL    HW125012   1.658   2.287   8.929  1.4094  0.2346 -0.5894
 7857SOL    HW225013   1.623   2.343   9.065  0.7053 -0.5586 -0.4288
 7858SOL     OW25014   4.318   0.162   8.415  0.1899 -0.5004 -0.4904
 7858SOL    HW125015   4.392   0.220   8.398 -0.0301  0.0802  0.4522
 7858SOL    HW225016   4.347   0.077   8.384  1.5627 -0.4514  0.5577
 7859SOL     OW25017   3.653   2.421   8.861  0.1818 -0.1008  0.6688
 7859SOL    HW125018   3.700   2.457   8.787 -0.7720 -0.7698 -0.2900
 7859SOL    HW225019   3.574   2.475   8.868 -0.3250 -0.7817  0.4092
 7860SOL     OW25020   5.318   6.260   4.287  0.3100  0.3885 -0.1167
 7860SOL    HW125021   5.311   6.354   4.303 -0.5261  0.3730 -0.3138
 7860SOL    HW225022   5.389   6.252   4.223  0.5366  0.8648  0.0666
 7861SOL     OW25023   5.197   5.604  11.286 -0.0357  0.1006  0.0960
 7861SOL    HW125024   5.124   5.636  11.339 -0.2130  0.3097 -0.2705
 7861SOL    HW225025   5.171   5.516  11.259  0.5985 -0.5125  1.3877
 7862SOL     OW25026   5.986   4.424   9.531  0.2351 -0.6021  0.2705
 7862SOL    HW125027   5.946   4.441   9.617  1.6764  0.8940  0.7068
 7862SOL    HW225028   6.076   4.398   9.552  1.3418  2.0316 -0.7773
 7863SOL     OW25029   6.633   6.427   2.026  0.2068  0.2208 -0.2369
 7863SOL    HW125030   6.585   6.345   2.042 -0.7810  1.2929  3.1111
 7863SOL    HW225031   6.725   6.402   2.027 -0.0692 -0.8481  0.9980
 7864SOL     OW25032   5.107   2.779   9.482 -0.2451  0.3348  0.3439
 7864SOL    HW125033   5.015   2.755   9.492  0.0325 -0.8395  0.2075
 7864SOL    HW225034   5.104   2.864   9.438 -1.2625 -0.1914 -0.6777
 7865SOL     OW25035   2.572   7.445   4.483  0.5055 -0.3135  0.1044
 7865SOL    HW125036   2.580   7.407   4.395  1.0174  0.4300 -0.1798
 7865SOL    HW225037   2.540   7.533   4.467 -1.0819 -0.7354  0.7832
 7866SOL     OW25038   3.544   6.874   2.876  0.2961 -0.7036  0.4356
 7866SOL    HW125039   3.593   6.886   2.958  1.3859  1.4263 -0.4589
 7866SOL    HW225040   3.592   6.805   2.830  2.3262  1.0433 -0.2321
 7867SOL     OW25041   1.863   4.409   8.930  0.0230  0.1522  0.3798
 7867SOL    HW125042   1.905   4.323   8.933 -0.5147 -0.2635 -1.9116
 7867SOL    HW225043   1.904   4.453   8.856 -3.3754 -0.2862 -2.0165
 7868SOL     OW25044   1.407   3.348   0.786  0.1143 -0.1232  0.4851
 7868SOL    HW125045   1.326   3.395   0.803 -0.1884 -1.0573  1.6496
 7868SOL    HW225046   1.465   3.373   0.858  1.0870  0.9730 -0.6235
 7869SOL     OW25047   1.985   4.540   4.137  0.1617  0.0690  0.4455
 7869SOL    HW125048   1.921   4.559   4.205  0.7401  0.0112  1.0174
 7869SOL    HW225049   2.000   4.624   4.093  2.6207  1.0688  2.8786
 7870SOL     OW25050   1.445   7.811   4.044  0.5730 -0.0001  0.2345
 7870SOL    HW125051   1.383   7.881   4.060  2.5002  1.4921  1.7147
 7870SOL    HW225052   1.424   7.744   4.109  0.1587  0.2325  0.3424
 7871SOL     OW25053   5.290   7.889   5.859 -0.6242 -0.2910  0.7648
 7871SOL    HW125054   5.358   7.947   5.893  0.0305 -1.6491  1.8793
 7871SOL    HW225055   5.229   7.877   5.931  0.1422 -2.2580  1.1398
 7872SOL     OW25056   0.481   3.115  10.051  0.1760  0.2983  0.9381
 7872SOL    HW125057   0.433   3.109  10.134 -1.6956 -1.3123 -0.1647
 7872SOL    HW225058   0.562   3.067  10.067 -0.9855 -1.6523  1.3516
 7873SOL     OW25059   7.098   6.506   6.373  0.0414  0.6377 -0.0146
 7873SOL    HW125060   7.069   6.451   6.447  0.3820  1.1211  0.4890
 7873SOL    HW225061   7.043   6.479   6.300  0.2483 -0.4327  0.2037
 7874SOL     OW25062   3.724   5.708   4.083  0.0836  0.1921  0.0541
 7874SOL    HW125063   3.785   5.766   4.038 -1.7403  1.2208 -1.2676
 7874SOL    HW225064   3.693   5.648   4.015 -2.8964  1.9203 -0.3370
 7875SOL     OW25065   4.368   6.707   3.070  0.6039  0.1565 -0.4581
 7875SOL    HW125066   4.426   6.758   3.014  0.2316 -0.6208 -1.5790
 7875SOL    HW225067   4.350   6.628   3.021 -0.7193 -0.0061  0.2390
 7876SOL     OW25068   6.964   7.082   7.629  0.3204 -1.0336  0.0362
 7876SOL    HW125069   6.913   7.136   7.689  0.5709 -0.5886 -0.1468
 7876SOL    HW225070   6.931   7.107   7.542  1.9267  0.4407 -0.2110
 7877SOL     OW25071   3.214   2.492   0.405 -0.5112 -0.1127 -0.0177
 7877SOL    HW125072   3.239   2.405   0.434 -2.5282 -1.9408 -3.1242
 7877SOL    HW225073   3.290   2.525   0.358  0.4799  0.1581  1.6823
 7878SOL     OW25074   4.678   5.630   7.960 -0.3060 -1.0166 -0.1002
 7878SOL    HW125075   4.709   5.546   7.992 -0.5720 -0.7997  0.7531
 7878SOL    HW225076   4.634   5.610   7.878  0.4858 -1.5714 -0.3993
 7879SOL     OW25077   0.492   5.101   4.746 -0.1844  0.1690  0.3300
 7879SOL    HW125078   0.547   5.043   4.693 -1.2404  1.8187 -2.9154
 7879SOL    HW225079   0.460   5.047   4.817  1.6894 -2.1773 -0.4833
 7880SOL     OW25080   3.519   4.011   4.926  0.0216  0.0286  0.0206
 7880SOL    HW125081   3.575   4.085   4.946 -1.3684  0.8266  1.1801
 7880SOL    HW225082   3.463   4.041   4.855 -0.4303  0.0531  0.3795
 7881SOL     OW25083   5.685   4.164   0.785  0.3078  0.2022  0.6382
 7881SOL    HW125084   5.638   4.083   0.805  0.1276  0.1322 -0.0532
 7881SOL    HW225085   5.619   4.221   0.746  1.0994 -0.4532 -1.8036
 7882SOL     OW25086   4.560   5.870   1.388  0.3189  0.0935 -0.5555
 7882SOL    HW125087   4.509   5.798   1.351 -0.7531  0.3169  0.4411
 7882SOL    HW225088   4.634   5.828   1.431 -1.1009 -0.5647  1.3361
 7883SOL     OW25089   6.917   1.456   7.821 -0.0934  0.0945 -0.3580
 7883SOL    HW125090   6.866   1.394   7.872 -0.1192 -1.4548 -2.1914
 7883SOL    HW225091   6.895   1.542   7.859 -1.3122 -0.8373  1.1541
 7884SOL     OW25092   1.635   0.003   1.327  0.1759 -0.1825 -0.2544
 7884SOL    HW125093   1.721   0.013   1.286  1.0893 -0.4543  1.4840
 7884SOL    HW225094   1.605  -0.084   1.300 -0.1774  0.4218 -1.9150
 7885SOL     OW25095   1.572   4.201   3.130 -0.3375  0.1260 -0.2291
 7885SOL    HW125096   1.649   4.147   3.148 -1.7681 -1.6609  0.8432
 7885SOL    HW225097   1.532   4.160   3.053 -0.8256  0.3429 -0.0945
 7886SOL     OW25098   2.165   4.723   1.631 -0.6257  0.4454 -0.1685
 7886SOL    HW125099   2.188   4.692   1.719 -0.4246  2.0993  0.3918
 7886SOL    HW225100   2.133   4.812   1.645  0.9614  1.3506 -1.9381
 7887SOL     OW25101   3.341   2.383   2.057 -0.3355  0.0359 -0.7226
 7887SOL    HW125102   3.298   2.401   1.973  1.2192 -0.6440 -1.7080
 7887SOL    HW225103   3.326   2.290   2.072  0.0590 -0.0160 -0.6457
 7888SOL     OW25104   3.921   0.838   4.433  0.0273  0.5936  0.2560
 7888SOL    HW125105   3.986   0.824   4.502 -0.1999  2.7336  1.0057
 7888SOL    HW225106   3.867   0.911   4.466 -0.5160  1.2284 -1.8803
 7889SOL     OW25107   2.285   4.611   0.540  0.2028 -0.1374 -0.0235
 7889SOL    HW125108   2.255   4.702   0.540  2.1485  0.6015  2.2138
 7889SOL    HW225109   2.256   4.575   0.624 -1.0754 -1.8343 -1.1289
 7890SOL     OW25110   6.610   7.755   1.456 -0.1695  0.1042  0.4534
 7890SOL    HW125111   6.658   7.744   1.538 -0.7817  2.3898  1.2095
 7890SOL    HW225112   6.519   7.744   1.480 -0.2572 -0.9022 -0.2938
 7891SOL     OW25113   5.598   0.259  11.625 -0.0856 -0.3848  0.3548
 7891SOL    HW125114   5.507   0.258  11.593  0.1469 -0.0958 -0.3266
 7891SOL    HW225115   5.605   0.180  11.678 -0.0468 -1.7125 -1.5376
 7892SOL     OW25116   5.765   5.707   0.932 -0.2555  0.2949 -0.4464
 7892SOL    HW125117   5.726   5.653   0.863 -0.2355 -2.2051  1.3685
 7892SOL    HW225118   5.690   5.751   0.972 -0.5837 -0.3283 -0.3634
 7893SOL     OW25119   7.205   1.280   5.419 -0.1039 -0.1243 -0.6981
 7893SOL    HW125120   7.140   1.263   5.487 -1.7506  0.3952 -2.0757
 7893SOL    HW225121   7.235   1.194   5.391 -0.2140 -0.3706 -0.0513
 7894SOL     OW25122   6.458   5.287   2.704  0.1121 -0.0265 -0.5332
 7894SOL    HW125123   6.496   5.367   2.667 -0.7327  0.7972  0.3637
 7894SOL    HW225124   6.364   5.302   2.703 -0.1862 -1.6574 -1.7953
 7895SOL     OW25125   6.272   5.614   2.368 -0.7445  0.1441  0.3712
 7895SOL    HW125126   6.217   5.689   2.390 -0.8622 -0.4616  2.3629
 7895SOL    HW225127   6.212   5.539   2.373 -0.7070 -0.1053 -1.9148
 7896SOL     OW25128   0.656   6.995   7.424 -0.2508 -0.1551  0.2103
 7896SOL    HW125129   0.616   7.066   7.373 -0.1018  0.1911  0.5787
 7896SOL    HW225130   0.661   7.029   7.513 -1.9840 -1.3266  0.8204
 7897SOL     OW25131   1.801   5.784   7.183  0.0601  0.3382 -1.0415
 7897SOL    HW125132   1.863   5.728   7.138  0.0496 -0.5769  0.0545
 7897SOL    HW225133   1.838   5.797   7.270 -2.4842 -2.4682  0.6207
 7898SOL     OW25134   0.263   0.994   9.107 -0.5622 -0.2466 -0.4968
 7898SOL    HW125135   0.194   1.048   9.145 -0.0445 -1.2811  2.1151
 7898SOL    HW225136   0.344   1.041   9.127 -0.2546 -0.9535 -0.0554
 7899SOL     OW25137   3.117   5.572   8.777 -0.2499  0.3347 -0.0302
 7899SOL    HW125138   3.183   5.505   8.760 -0.8160 -0.9524  2.3507
 7899SOL    HW225139   3.051   5.560   8.708  1.0859  0.4915 -1.3880
 7900SOL     OW25140   3.948   7.959   3.524 -0.2832 -0.2152 -0.0376
 7900SOL    HW125141   3.978   7.986   3.611  2.3272 -1.8909 -0.3104
 7900SOL    HW225142   3.859   7.927   3.539 -0.2692  0.5092  1.8228
 7901SOL     OW25143   5.709   4.157   0.168  0.2502 -0.0084 -0.3222
 7901SOL    HW125144   5.700   4.182   0.076  1.8293  1.1627 -0.2018
 7901SOL    HW225145   5.757   4.229   0.208  1.1380 -1.2842  1.0372
 7902SOL     OW25146   5.298   7.871   2.113 -0.2549 -0.0536 -0.4384
 7902SOL    HW125147   5.340   7.835   2.191 -1.7967 -0.6929  0.1382
 7902SOL    HW225148   5.248   7.798   2.076 -1.2797  0.7870 -0.7790
 7903SOL     OW25149   0.552   1.862   5.955 -0.9153 -0.1772  0.3819
 7903SOL    HW125150   0.523   1.771   5.945  1.5281 -0.8293 -1.9668
 7903SOL    HW225151   0.485   1.914   5.910 -2.5839 -0.6625  2.1567
 7904SOL     OW25152   0.558   6.399   5.807  0.7069  0.4239 -0.1758
 7904SOL    HW125153   0.495   6.418   5.737 -2.6824  0.6737  2.6199
 7904SOL    HW225154   0.598   6.483   5.827  0.5753  0.6462 -0.8187
 7905SOL     OW25155   6.027   4.414   5.340 -0.0016  0.3190  0.2051
 7905SOL    HW125156   6.066   4.451   5.261  1.5921 -1.0896  0.2674
 7905SOL    HW225157   6.016   4.321   5.320 -2.1907  0.4286  0.6828
 7906SOL     OW25158   0.153   0.694  11.659  0.0603 -0.4549  0.1414
 7906SOL    HW125159   0.150   0.751  11.737  0.2347 -0.8425  0.4332
 7906SOL    HW225160   0.096   0.738  11.596 -0.8092 -0.5987  0.8093
 7907SOL     OW25161   3.398   6.762   0.710 -0.2902 -0.6460 -1.2702
 7907SOL    HW125162   3.492   6.764   0.724 -0.8009  1.3017  3.4803
 7907SOL    HW225163   3.376   6.850   0.677 -0.6780  0.0535  0.7317
 7908SOL     OW25164   2.036   5.939   2.947 -0.5450 -0.0541  0.7813
 7908SOL    HW125165   2.109   5.884   2.977 -0.2413  0.4298  0.9357
 7908SOL    HW225166   1.958   5.886   2.965 -0.7145  1.2642  5.2309
 7909SOL     OW25167   2.626   2.059   6.832 -0.4173  0.2186 -0.1040
 7909SOL    HW125168   2.695   2.110   6.789  0.8029 -1.4320 -0.1896
 7909SOL    HW225169   2.551   2.066   6.773  0.6736 -0.5231 -1.6677
 7910SOL     OW25170   5.626   5.564   2.881  0.2651  0.3197  0.4302
 7910SOL    HW125171   5.658   5.503   2.947 -2.8618 -1.3489  0.6006
 7910SOL    HW225172   5.592   5.638   2.931 -0.1162  0.0592  0.5615
 7911SOL     OW25173   1.058   0.081   3.516  0.0624 -0.1099  0.4675
 7911SOL    HW125174   1.119   0.009   3.532 -0.0336 -0.0830  0.9706
 7911SOL    HW225175   1.074   0.142   3.589  0.7455  0.7888 -0.4064
 7912SOL     OW25176   6.616   0.862   8.672 -0.3277 -0.0826 -0.2218
 7912SOL    HW125177   6.707   0.887   8.655 -0.1039 -0.7976 -0.0720
 7912SOL    HW225178   6.621   0.780   8.721 -0.9745  1.3299  2.3894
 7913SOL     OW25179   1.785   1.529   3.352  0.1945  0.5851  1.2772
 7913SOL    HW125180   1.738   1.573   3.282  0.1578  0.9640  1.5372
 7913SOL    HW225181   1.877   1.549   3.336  0.2160  0.3853  1.1431
 7914SOL     OW25182   3.530   5.787   0.690  0.7045 -0.2561  0.1642
 7914SOL    HW125183   3.521   5.698   0.724 -0.0473 -0.8559 -1.4925
 7914SOL    HW225184   3.526   5.843   0.767  1.0809 -1.6458  1.2336
 7915SOL     OW25185   4.696   0.878   4.685 -0.3153 -0.1564  0.0517
 7915SOL    HW125186   4.729   0.867   4.596 -2.4955  0.3913 -0.8734
 7915SOL    HW225187   4.712   0.970   4.706 -0.0940 -0.2079  0.1125
 7916SOL     OW25188   1.895   7.408   5.321  0.1945 -0.3647 -0.4497
 7916SOL    HW125189   1.889   7.359   5.403  1.2142 -0.0098 -0.1497
 7916SOL    HW225190   1.963   7.363   5.270 -0.1816 -0.3719 -0.9605
 7917SOL     OW25191   0.397   2.090   9.282 -0.4126 -0.8232  0.9053
 7917SOL    HW125192   0.375   2.069   9.191 -1.4769  0.8128  0.7433
 7917SOL    HW225193   0.477   2.143   9.276 -1.9786  1.6916  0.5967
 7918SOL     OW25194   5.764   4.641   4.645  0.3919 -0.1389  0.3799
 7918SOL    HW125195   5.724   4.723   4.672  1.1544  0.2877  0.2383
 7918SOL    HW225196   5.700   4.601   4.587  1.0608  1.5952 -1.6622
 7919SOL     OW25197   2.226   0.865   6.091 -0.8170  0.0626 -0.2921
 7919SOL    HW125198   2.238   0.924   6.016 -0.8946 -0.2293 -0.5385
 7919SOL    HW225199   2.133   0.842   6.088 -0.9694  0.6063  0.3150
 7920SOL     OW25200   7.377   0.169   4.526 -0.0078 -0.3332 -0.6227
 7920SOL    HW125201   7.423   0.192   4.445  1.0232 -2.2202 -0.6375
 7920SOL    HW225202   7.420   0.222   4.593 -0.5322  0.8728 -1.2192
 7921SOL     OW25203   1.084   0.523   7.471  0.0596 -0.4852 -0.0159
 7921SOL    HW125204   1.069   0.516   7.565  0.2452  0.4927  0.0902
 7921SOL    HW225205   1.099   0.432   7.443 -1.3616 -0.9641  0.6448
 7922SOL     OW25206   6.077   2.013  10.751 -0.0918 -0.4447  0.2819
 7922SOL    HW125207   6.146   1.997  10.688 -0.0532  1.1967 -0.1447
 7922SOL    HW225208   5.995   2.001  10.702 -0.0628  0.6055 -0.0582
 7923SOL     OW25209   0.916   1.071  10.683  0.5057 -0.5528 -0.3839
 7923SOL    HW125210   0.909   1.167  10.681  0.0612 -0.5904 -1.1511
 7923SOL    HW225211   0.957   1.052  10.767 -0.3570  0.2573  0.2455
 7924SOL     OW25212   5.030   4.545   6.739  0.1844 -0.2590  0.4547
 7924SOL    HW125213   4.986   4.551   6.654  1.6091  0.4804 -0.2515
 7924SOL    HW225214   4.991   4.467   6.780 -0.4998 -0.6508 -0.8803
 7925SOL     OW25215   1.347   5.045  11.842 -0.2557 -0.0835 -0.0301
 7925SOL    HW125216   1.279   5.053  11.776  0.4610 -1.0986 -0.9272
 7925SOL    HW225217   1.378   4.955  11.835  1.9716  0.6291 -0.4788
 7926SOL     OW25218   6.856   6.754   1.990 -0.5196 -0.0329 -0.7857
 7926SOL    HW125219   6.913   6.690   1.947 -1.5414 -0.2967 -1.8052
 7926SOL    HW225220   6.852   6.726   2.081 -1.7472 -2.0556 -1.4131
 7927SOL     OW25221   5.777   7.549   8.888  0.0257  0.1364  0.0697
 7927SOL    HW125222   5.810   7.579   8.803 -0.7468  0.0601 -0.2681
 7927SOL    HW225223   5.697   7.599   8.901 -0.0813 -0.1619  0.5599
 7928SOL     OW25224   5.716   1.652   9.611  0.1022  0.4927  0.1033
 7928SOL    HW125225   5.693   1.618   9.525  2.6267  1.6268 -1.1087
 7928SOL    HW225226   5.809   1.630   9.622  0.7223  3.2346  1.0551
 7929SOL     OW25227   5.851   6.909   6.285  0.3494  0.4000  0.2248
 7929SOL    HW125228   5.894   6.991   6.312  0.6267  0.9361 -1.6869
 7929SOL    HW225229   5.807   6.932   6.203 -1.4675 -0.8114  0.8265
 7930SOL     OW25230   2.478   2.055   0.045 -0.0434  0.2481 -0.4682
 7930SOL    HW125231   2.522   2.005   0.114  1.3787  0.6574 -1.0560
 7930SOL    HW225232   2.476   1.995  -0.030 -0.1187  0.3754 -0.5671
 7931SOL     OW25233   1.393   4.775  10.184 -0.1029  0.3136 -0.2592
 7931SOL    HW125234   1.485   4.801  10.196  0.1307 -0.8625  0.6133
 7931SOL    HW225235   1.350   4.803  10.265 -0.2735 -0.1860 -0.1784
 7932SOL     OW25236   4.688   7.638   1.170  0.3311  0.3113 -0.2373
 7932SOL    HW125237   4.689   7.575   1.242  0.9053  0.1191 -0.4099
 7932SOL    HW225238   4.611   7.691   1.187  0.3884  0.1913  0.4571
 7933SOL     OW25239   1.069   5.603   9.751 -0.8847  0.0563 -0.3444
 7933SOL    HW125240   1.055   5.681   9.697 -0.0989 -0.2161 -0.9584
 7933SOL    HW225241   1.137   5.554   9.705 -0.2659 -0.2330  0.8491
 7934SOL     OW25242   2.427   4.586   7.942 -0.2658 -0.1576  0.7236
 7934SOL    HW125243   2.333   4.600   7.951 -0.1014 -0.1058  2.5793
 7934SOL    HW225244   2.437   4.491   7.935 -0.6055 -0.0798 -2.1471
 7935SOL     OW25245   6.173   3.803   7.537  0.2269  0.1514  0.2508
 7935SOL    HW125246   6.084   3.771   7.524  0.5887 -0.8285  0.1301
 7935SOL    HW225247   6.187   3.867   7.467 -0.7045  1.0240  0.8414
 7936SOL     OW25248   1.710   6.514   8.678 -0.0023  0.0797  0.8020
 7936SOL    HW125249   1.765   6.437   8.662 -1.0969 -0.5680  0.0434
 7936SOL    HW225250   1.693   6.549   8.591 -2.0128 -0.6272  0.8500
 7937SOL     OW25251   6.925   0.400   0.532 -0.7085 -0.2594  0.0748
 7937SOL    HW125252   6.956   0.477   0.484 -1.2872 -0.3376 -0.4452
 7937SOL    HW225253   6.859   0.435   0.593 -0.3481 -0.2302  0.4506
 7938SOL     OW25254   6.425   6.111   7.442 -0.2623 -0.2625  0.5656
 7938SOL    HW125255   6.388   6.091   7.356  1.5979 -0.3158 -0.2851
 7938SOL    HW225256   6.372   6.183   7.475 -1.5041 -0.7641 -0.2737
 7939SOL     OW25257   5.968   1.476  10.084  0.4870  0.3974 -0.3784
 7939SOL    HW125258   5.950   1.403  10.025 -0.3468  1.6672 -1.7623
 7939SOL    HW225259   5.890   1.531  10.079 -0.1694 -0.0236  2.9154
 7940SOL     OW25260   4.296   2.007   9.682 -0.1243 -0.3735  0.3434
 7940SOL    HW125261   4.357   1.973   9.616  1.3577  0.5102  1.2044
 7940SOL    HW225262   4.352   2.036   9.754 -1.5718  0.5240  1.1565
 7941SOL     OW25263   6.977   2.263  11.453  0.6281 -0.3899  0.6334
 7941SOL    HW125264   6.974   2.267  11.357 -0.3378  1.5213  0.6958
 7941SOL    HW225265   6.997   2.171  11.472  2.6469 -0.4707 -1.4076
 7942SOL     OW25266   4.042   5.680  11.606 -0.4763 -0.1736 -0.4137
 7942SOL    HW125267   3.967   5.628  11.637  0.6325 -0.0051  2.9583
 7942SOL    HW225268   4.115   5.618  11.604  0.4844  0.7371  2.0394
 7943SOL     OW25269   7.527   5.911   1.275  0.1752  0.0659  0.0331
 7943SOL    HW125270   7.510   5.999   1.309  0.8647  0.3394 -0.3197
 7943SOL    HW225271   7.458   5.898   1.209 -0.0017  0.2892  0.1703
 7944SOL     OW25272   1.090   6.898   8.983  0.3113  0.0908 -0.1463
 7944SOL    HW125273   1.123   6.821   8.936 -0.5621 -0.4461  0.0907
 7944SOL    HW225274   1.155   6.913   9.052  0.3536 -0.6002 -0.0293
 7945SOL     OW25275   4.628   1.921   8.054 -0.0288 -0.4006  0.0058
 7945SOL    HW125276   4.547   1.871   8.066 -1.1503  1.2177 -0.4439
 7945SOL    HW225277   4.626   1.947   7.962  0.3319  0.7332  0.2986
 7946SOL     OW25278   6.755   5.372   6.585 -0.2005 -0.0396 -0.2195
 7946SOL    HW125279   6.708   5.359   6.668  0.9319  0.7937  0.5846
 7946SOL    HW225280   6.814   5.297   6.578 -0.0616  0.0558 -0.0918
 7947SOL     OW25281   6.299   7.238  10.208  0.1795  0.6980  0.4292
 7947SOL    HW125282   6.268   7.185  10.135 -1.6512  0.1367  1.5174
 7947SOL    HW225283   6.385   7.269  10.182  1.0008 -2.1560 -0.6047
 7948SOL     OW25284   5.033   2.882   2.956 -0.4207  0.1905 -0.4236
 7948SOL    HW125285   4.949   2.844   2.930 -1.1229  1.5813 -0.3163
 7948SOL    HW225286   5.013   2.974   2.974  1.0722  0.4809 -0.0810
 7949SOL     OW25287   1.102   6.186   3.298  0.4005 -0.3937  0.4869
 7949SOL    HW125288   1.126   6.257   3.238  0.6558 -0.5710  0.3807
 7949SOL    HW225289   1.027   6.143   3.255 -0.0498  0.0900  0.7680
 7950SOL     OW25290   3.871   4.579   2.678 -0.4280  0.2283 -0.2059
 7950SOL    HW125291   3.887   4.521   2.752 -0.3809 -0.1415 -0.5006
 7950SOL    HW225292   3.834   4.658   2.717 -3.2075 -1.0478 -0.0260
 7951SOL     OW25293   7.092   6.132   1.599 -0.0138 -0.3346  0.1190
 7951SOL    HW125294   7.046   6.091   1.525  1.8549 -1.4256 -0.5216
 7951SOL    HW225295   7.148   6.062   1.634  0.9617  0.8401  1.0028
 7952SOL     OW25296   5.061   4.138  11.036 -0.4368  0.0121 -0.2698
 7952SOL    HW125297   4.983   4.142  10.980 -1.9434 -0.4953  1.6778
 7952SOL    HW225298   5.034   4.180  11.118  0.9557 -1.2285  0.8807
 7953SOL     OW25299   4.122   7.089   2.721  0.2077  0.3924  0.0359
 7953SOL    HW125300   4.105   7.127   2.807 -1.7240  0.4069 -0.3034
 7953SOL    HW225301   4.083   7.151   2.659 -0.0909 -0.5210 -0.7160
 7954SOL     OW25302   1.589   7.626   4.841  0.1481  0.2614 -0.4615
 7954SOL    HW125303   1.528   7.607   4.770  0.5627  0.8986 -1.0036
 7954SOL    HW225304   1.533   7.654   4.914 -0.2817 -0.4132 -0.5265
 7955SOL     OW25305   0.636   2.938   4.820  0.0153 -0.1190  0.0703
 7955SOL    HW125306   0.639   3.033   4.824 -1.3268 -0.0478  0.0167
 7955SOL    HW225307   0.542   2.917   4.817  0.2569 -1.3065 -2.5162
 7956SOL     OW25308   3.965   6.567   9.019  0.3666  0.0091  0.2279
 7956SOL    HW125309   4.001   6.604   9.100  1.1911 -1.5757  0.6102
 7956SOL    HW225310   3.885   6.521   9.047 -1.7379  2.8933 -0.5074
 7957SOL     OW25311   7.127   6.260   7.706  0.2396 -0.3588 -0.0344
 7957SOL    HW125312   7.148   6.167   7.695  0.0818 -0.3045 -0.8843
 7957SOL    HW225313   7.193   6.305   7.653 -0.1809 -0.0269 -0.2789
 7958SOL     OW25314   5.114   5.342  11.248  0.2709 -0.0581 -0.2038
 7958SOL    HW125315   5.033   5.331  11.297 -1.1813 -1.9425 -2.8132
 7958SOL    HW225316   5.177   5.286  11.293 -0.2403  0.3499  1.0498
 7959SOL     OW25317   3.761   2.926   7.021  0.3908 -0.2999  0.2665
 7959SOL    HW125318   3.677   2.942   6.979  0.5994 -1.5630 -0.6751
 7959SOL    HW225319   3.808   2.868   6.962  1.2003 -1.1233  1.6427
 7960SOL     OW25320   2.695   2.307   5.690 -0.0199  0.5812  0.4923
 7960SOL    HW125321   2.611   2.296   5.647  0.4272  0.3414 -0.3271
 7960SOL    HW225322   2.753   2.339   5.622  0.7759 -0.1015  0.8328
 7961SOL     OW25323   4.937   7.307   7.276 -0.0147 -0.0761 -0.0708
 7961SOL    HW125324   4.998   7.365   7.232  0.0277  1.5465  1.9694
 7961SOL    HW225325   4.851   7.329   7.238  0.3147 -0.4969 -1.0830
 7962SOL     OW25326   7.835   6.058   7.512  0.7363  0.0911  0.1833
 7962SOL    HW125327   7.870   5.970   7.499 -0.3983 -0.3715  0.1086
 7962SOL    HW225328   7.906   6.107   7.554  1.3362 -0.8978  0.3424
 7963SOL     OW25329   7.388   6.581   8.240 -0.5145  0.5169  0.2839
 7963SOL    HW125330   7.373   6.487   8.247 -0.1352  0.0325 -3.2703
 7963SOL    HW225331   7.482   6.592   8.257  0.0517 -0.2623 -1.9506
 7964SOL     OW25332   7.003   7.330   8.025 -0.0608  0.3098 -0.2800
 7964SOL    HW125333   6.998   7.415   8.070 -0.6842 -0.6931  1.6767
 7964SOL    HW225334   6.938   7.337   7.955 -1.7591  0.7203  1.2461
 7965SOL     OW25335   7.502   4.611   2.833 -0.0345  0.4310  0.3802
 7965SOL    HW125336   7.501   4.663   2.913  1.1143  1.4446 -0.2236
 7965SOL    HW225337   7.545   4.667   2.769 -0.3442 -0.6097 -0.7821
 7966SOL     OW25338   0.892   1.207   5.977 -0.0553  0.2772  0.2762
 7966SOL    HW125339   0.846   1.131   6.013  0.5725 -0.8168 -1.1661
 7966SOL    HW225340   0.825   1.253   5.926 -0.3643  0.5586  0.9195
 7967SOL     OW25341   6.758   0.391   8.751  0.5135 -0.0813 -0.1125
 7967SOL    HW125342   6.731   0.418   8.663  0.3333  1.4457  0.3761
 7967SOL    HW225343   6.853   0.404   8.753  0.4706  0.2210  0.0229
 7968SOL     OW25344   3.824   1.037   9.022 -0.0047  0.6424 -0.4021
 7968SOL    HW125345   3.834   1.072   8.934  0.8041  1.6050  0.0400
 7968SOL    HW225346   3.797   1.112   9.075  0.1126  0.2176  0.2793
 7969SOL     OW25347   1.737   3.674   6.729 -0.0988  0.3010  0.1259
 7969SOL    HW125348   1.711   3.662   6.637 -1.2004  3.2837 -0.0523
 7969SOL    HW225349   1.661   3.646   6.779 -0.9033  2.0091 -0.0789
 7970SOL     OW25350   5.548   4.720   9.419  0.0690 -0.0037  0.0265
 7970SOL    HW125351   5.485   4.784   9.452  0.7836  0.3943  0.6613
 7970SOL    HW225352   5.560   4.659   9.492 -0.2969 -0.6358 -0.4297
 7971SOL     OW25353   6.927   3.790  11.355  0.6520  0.0154 -0.2822
 7971SOL    HW125354   6.931   3.699  11.325 -2.1211 -0.5950  0.8672
 7971SOL    HW225355   6.975   3.789  11.438  0.8651 -0.3082 -0.4036
 7972SOL     OW25356   3.255   5.874   6.516  0.4245 -0.3520  0.5573
 7972SOL    HW125357   3.191   5.887   6.445  2.3720 -0.1035 -1.2482
 7972SOL    HW225358   3.223   5.930   6.587 -1.8078 -0.8876  0.0666
 7973SOL     OW25359   1.031   6.300   3.866  0.6673 -0.1825 -0.2544
 7973SOL    HW125360   1.039   6.395   3.872 -1.2863 -0.0362  0.5004
 7973SOL    HW225361   1.121   6.268   3.879  1.1890  1.4994  0.5575
 7974SOL     OW25362   6.542   1.923   3.746 -0.2392  0.1981  0.1649
 7974SOL    HW125363   6.544   1.933   3.841 -0.4735 -0.2697  0.2254
 7974SOL    HW225364   6.514   2.008   3.712  1.1176  0.7652  0.4359
 7975SOL     OW25365   0.658   6.377   4.077 -0.4440 -0.2136 -0.1663
 7975SOL    HW125366   0.725   6.436   4.044 -0.9040 -0.2259 -1.1515
 7975SOL    HW225367   0.582   6.393   4.021 -1.1738 -0.4052  0.7504
 7976SOL     OW25368   4.943   6.740   8.281 -0.6894 -0.5803 -0.1109
 7976SOL    HW125369   4.867   6.683   8.269  0.2972 -2.1313  0.5412
 7976SOL    HW225370   4.926   6.816   8.226 -3.1252 -0.4141  0.7260
 7977SOL     OW25371   0.465   1.905   6.323  0.2714  0.2305  0.4400
 7977SOL    HW125372   0.417   1.988   6.313 -1.2779 -0.1970  3.3695
 7977SOL    HW225373   0.556   1.932   6.336 -0.2105  1.5326  1.3851
 7978SOL     OW25374   1.269   5.513   5.370  1.2694 -0.1309 -0.5845
 7978SOL    HW125375   1.267   5.605   5.346 -0.1792  0.3973  1.3200
 7978SOL    HW225376   1.186   5.477   5.340  1.1451 -0.4104  0.0596
 7979SOL     OW25377   4.713   1.849  10.687 -0.7025 -0.0473 -0.1127
 7979SOL    HW125378   4.802   1.832  10.717 -0.1210 -0.6927 -2.0676
 7979SOL    HW225379   4.719   1.933  10.641 -1.2326  0.1644  0.1908
 7980SOL     OW25380   3.815   7.364   5.339 -0.0988 -0.0662 -0.5906
 7980SOL    HW125381   3.853   7.328   5.420  0.0426 -0.2672 -0.7457
 7980SOL    HW225382   3.874   7.335   5.270  0.7395  1.5388 -0.5982
 7981SOL     OW25383   5.357   5.332   8.444  0.3449  0.5244 -0.1992
 7981SOL    HW125384   5.330   5.423   8.452 -1.7581 -0.0921  0.2880
 7981SOL    HW225385   5.441   5.327   8.489  0.0248  2.0310  0.6092
 7982SOL     OW25386   7.792   5.870  11.978  0.5471  0.3931 -0.1354
 7982SOL    HW125387   7.837   5.792  11.947 -0.6360 -0.6415  0.6474
 7982SOL    HW225388   7.768   5.849  12.069  1.8244  2.3952  0.7459
 7983SOL     OW25389   7.151   7.609   6.869 -0.1830  0.1396  0.5672
 7983SOL    HW125390   7.089   7.642   6.804  0.7407  0.4630 -0.1807
 7983SOL    HW225391   7.147   7.672   6.941  0.6626  1.2388 -0.3150
 7984SOL     OW25392   6.857   1.055   0.420  0.0018 -0.1409 -0.2452
 7984SOL    HW125393   6.868   1.112   0.344 -2.0033  0.9662  0.2355
 7984SOL    HW225394   6.763   1.040   0.426 -0.1203  0.9983  2.8008
 7985SOL     OW25395   4.026   2.713   7.557  0.1360  0.2046  0.0673
 7985SOL    HW125396   4.029   2.742   7.648  1.7164 -0.0451  0.1367
 7985SOL    HW225397   4.117   2.722   7.527 -0.4727  0.8515 -1.6666
 7986SOL     OW25398   2.256   7.599   2.036 -0.3893  0.1283  0.3037
 7986SOL    HW125399   2.162   7.591   2.023 -0.3474 -0.5894  0.3745
 7986SOL    HW225400   2.294   7.552   1.962 -0.1230 -1.7569  1.5641
 7987SOL     OW25401   7.341   5.843   0.544  0.0714  0.3763  0.6333
 7987SOL    HW125402   7.284   5.840   0.621  0.0168  1.0140  0.6232
 7987SOL    HW225403   7.424   5.806   0.573 -0.5964 -1.3984  0.4170
 7988SOL     OW25404   7.005   7.294  11.959 -0.0948  0.1658 -0.4049
 7988SOL    HW125405   6.975   7.294  12.050 -1.9755 -0.8735 -0.9834
 7988SOL    HW225406   6.986   7.206  11.927  1.2257  0.2816 -1.6100
 7989SOL     OW25407   6.737   3.883  11.191  0.2622  0.7422  0.1544
 7989SOL    HW125408   6.782   3.851  11.269 -0.9383 -0.5551  0.3437
 7989SOL    HW225409   6.652   3.915  11.223 -0.0004  0.7536 -0.5330
 7990SOL     OW25410   4.128   4.483   5.591 -0.3109  0.2626  0.4649
 7990SOL    HW125411   4.116   4.422   5.664 -1.9331  0.6312  0.5402
 7990SOL    HW225412   4.141   4.568   5.632  0.5561  0.2034  0.3336
 7991SOL     OW25413   7.241   6.974   3.581  0.9015  0.0069  0.0132
 7991SOL    HW125414   7.328   6.967   3.541  1.5152 -2.3716  1.5812
 7991SOL    HW225415   7.184   6.925   3.522  1.1660 -0.6941  0.3296
 7992SOL     OW25416   3.916   7.915   3.150 -0.0730  0.3516  0.2678
 7992SOL    HW125417   3.848   7.854   3.176 -1.1693  0.7467 -1.4684
 7992SOL    HW225418   3.968   7.867   3.085  0.7257  0.3741  0.8744
 7993SOL     OW25419   6.587   1.644  10.108  0.3638 -0.0192 -0.4547
 7993SOL    HW125420   6.655   1.710  10.125  0.4410 -0.0050 -0.7980
 7993SOL    HW225421   6.523   1.689  10.054 -0.6133  0.3631  0.9873
 7994SOL     OW25422   2.167   0.970   3.522 -0.1574 -0.1323 -0.4088
 7994SOL    HW125423   2.257   1.003   3.514  0.0046 -0.6888 -1.0597
 7994SOL    HW225424   2.177   0.875   3.526 -0.7734 -0.2811 -1.7833
 7995SOL     OW25425   5.898   5.018   0.017 -0.4013  0.2717 -0.7416
 7995SOL    HW125426   5.884   5.112   0.013  1.9498  0.7337 -0.0184
 7995SOL    HW225427   5.994   5.008   0.021 -0.5889 -1.9343  2.5823
 7996SOL     OW25428   1.556   3.570   0.919  0.2489  0.3444 -0.1814
 7996SOL    HW125429   1.635   3.590   0.868  1.2260 -1.1729  0.6785
 7996SOL    HW225430   1.589   3.539   1.003 -1.2965  0.4670  0.5006
 7997SOL     OW25431   4.989   1.169   1.334  0.1431 -0.9126 -0.6026
 7997SOL    HW125432   5.009   1.170   1.241 -1.6159  0.0382 -1.0122
 7997SOL    HW225433   4.904   1.126   1.341  0.1037 -0.7031  0.5171
 7998SOL     OW25434   0.750   0.181  11.816  0.0952  0.3245  0.5403
 7998SOL    HW125435   0.719   0.271  11.813  2.1740  1.0933  0.6455
 7998SOL    HW225436   0.676   0.131  11.850 -1.2301  1.9145  0.0763
 7999SOL     OW25437   5.132   3.112   4.873  0.0791 -0.2614 -0.2364
 7999SOL    HW125438   5.061   3.176   4.878  0.8763  0.6910 -0.6753
 7999SOL    HW225439   5.211   3.166   4.865  0.9005 -1.2819  0.7371
 8000SOL     OW25440   2.491   2.551   6.689  0.1254  0.2399  0.0366
 8000SOL    HW125441   2.421   2.487   6.676 -2.0477  2.4045  0.3275
 8000SOL    HW225442   2.547   2.511   6.755 -0.6218 -1.7186 -0.4292
 8001SOL     OW25443   3.146   7.383   9.843 -0.2621 -0.4178 -0.4187
 8001SOL    HW125444   3.223   7.372   9.788 -0.5345  2.4138 -1.5459
 8001SOL    HW225445   3.177   7.437   9.916 -0.7171 -1.0740  0.2678
 8002SOL     OW25446   0.038   3.033  10.176 -0.4535 -0.2044 -0.3589
 8002SOL    HW125447  -0.039   3.059  10.126 -0.4301 -0.9473 -0.7991
 8002SOL    HW225448   0.044   2.938  10.162  1.0442 -0.0246 -1.0556
 8003SOL     OW25449   3.535   7.877   0.270 -0.0419 -0.2755 -0.7036
 8003SOL    HW125450   3.458   7.870   0.213 -1.2004  0.1378  0.7393
 8003SOL    HW225451   3.568   7.788   0.278 -0.8996 -0.6061 -0.6783
 8004SOL     OW25452   3.896   7.718   6.778  0.2082  0.3567 -0.0413
 8004SOL    HW125453   3.913   7.631   6.815 -2.4971  0.2831  1.3027
 8004SOL    HW225454   3.904   7.777   6.853  2.0020  1.3297 -0.9421
 8005SOL     OW25455   3.008   0.989   6.006 -0.4533 -0.0857 -0.3927
 8005SOL    HW125456   2.959   1.025   6.079  1.0869 -0.8352  1.0837
 8005SOL    HW225457   2.944   0.936   5.957 -1.0892 -1.2800  1.6266
 8006SOL     OW25458   5.473   7.080   0.794  0.2325  0.3653  0.3023
 8006SOL    HW125459   5.430   7.155   0.754 -1.8797 -0.5974  0.6109
 8006SOL    HW225460   5.481   7.101   0.887  0.8544  0.7067  0.1798
 8007SOL     OW25461   4.460   7.209   3.156  0.1267  0.0434  0.1803
 8007SOL    HW125462   4.447   7.285   3.213  2.7854  0.9100 -0.2266
 8007SOL    HW225463   4.428   7.239   3.070  0.1489  0.2978  0.2603
 8008SOL     OW25464   4.795   7.274   0.809  0.4281  0.3337  0.3185
 8008SOL    HW125465   4.857   7.210   0.844 -0.3597 -1.1043 -0.8023
 8008SOL    HW225466   4.710   7.247   0.844 -0.2192 -0.5000 -1.7474
 8009SOL     OW25467   3.384   6.251   2.163  0.2801 -0.2535  0.0786
 8009SOL    HW125468   3.420   6.206   2.239 -2.1763  1.2237  2.2716
 8009SOL    HW225469   3.336   6.183   2.115  1.1726 -1.0259  0.2408
 8010SOL     OW25470   1.397   0.794   2.523  0.1479  0.0107 -0.5294
 8010SOL    HW125471   1.354   0.879   2.518  1.3549  0.6627 -0.1854
 8010SOL    HW225472   1.325   0.731   2.525 -0.8662  1.1298  1.7441
 8011SOL     OW25473   2.222   5.779   7.504  0.4213  0.2282  0.2522
 8011SOL    HW125474   2.166   5.785   7.427  0.9916 -0.2728 -0.2115
 8011SOL    HW225475   2.207   5.690   7.538  0.1337  0.4622  0.7538
 8012SOL     OW25476   6.886   2.196   4.796  0.5279  0.2152 -0.1234
 8012SOL    HW125477   6.859   2.267   4.738 -1.3584 -0.2462  0.1072
 8012SOL    HW225478   6.927   2.132   4.739  2.5522  1.5875 -0.2897
 8013SOL     OW25479   6.092   3.872   5.979 -0.3918 -0.4742  0.5808
 8013SOL    HW125480   6.071   3.904   5.892  0.1953 -0.9543  0.2602
 8013SOL    HW225481   6.132   3.787   5.965 -0.4747 -0.6482  1.3340
 8014SOL     OW25482   6.046   1.488   1.414 -0.0209 -0.1995  0.0667
 8014SOL    HW125483   5.959   1.474   1.451 -0.9130  2.6628 -0.6865
 8014SOL    HW225484   6.031   1.491   1.319  0.6529  1.4542 -0.0203
 8015SOL     OW25485   6.269   6.751   8.154 -0.4235 -0.1850  0.2634
 8015SOL    HW125486   6.302   6.671   8.194 -0.9175 -0.4205  0.2050
 8015SOL    HW225487   6.346   6.807   8.145  0.1239 -1.0459 -0.6552
 8016SOL     OW25488   4.765   6.213   8.560 -0.7086  0.8488  0.7348
 8016SOL    HW125489   4.827   6.276   8.524 -0.9852  0.0273 -1.3070
 8016SOL    HW225490   4.679   6.245   8.532 -0.9552  0.2381  0.7786
 8017SOL     OW25491   1.954   5.741   3.497 -0.1107 -0.6660 -0.0873
 8017SOL    HW125492   1.896   5.812   3.525 -0.6606 -1.8619  2.0357
 8017SOL    HW225493   1.920   5.663   3.541  1.8138 -1.8297 -0.5365
 8018SOL     OW25494   7.748   6.911   4.287 -0.2228 -0.0565  0.0955
 8018SOL    HW125495   7.780   6.927   4.198 -1.7474 -0.0916 -0.5032
 8018SOL    HW225496   7.656   6.887   4.275 -0.7091  0.8099  1.7506
 8019SOL     OW25497   3.776   6.506   6.690  0.7343 -0.7009 -0.2206
 8019SOL    HW125498   3.817   6.533   6.608  2.5766 -0.3330  0.7797
 8019SOL    HW225499   3.837   6.443   6.728 -0.2561 -1.1166  0.7311
 8020SOL     OW25500   1.875   3.776   7.682 -0.3293  0.5386 -0.0969
 8020SOL    HW125501   1.965   3.781   7.648  0.8652 -1.9071  2.3430
 8020SOL    HW225502   1.827   3.727   7.616  0.7907 -0.2652 -0.3476
 8021SOL     OW25503   6.027   5.156  11.174  0.4312 -0.1831 -0.2518
 8021SOL    HW125504   5.977   5.227  11.214  2.1547  1.0650 -0.1934
 8021SOL    HW225505   6.049   5.098  11.246 -0.3898 -0.4149 -0.1804
 8022SOL     OW25506   3.870   5.151   5.189 -0.4134 -0.3950  0.2891
 8022SOL    HW125507   3.803   5.115   5.130 -0.6648  0.0538  0.2886
 8022SOL    HW225508   3.833   5.139   5.276  0.5867 -2.3601  0.4868
 8023SOL     OW25509   5.815   7.550   3.791 -0.1659 -0.0377 -0.0217
 8023SOL    HW125510   5.899   7.512   3.815 -0.8716 -2.1099 -0.5891
 8023SOL    HW225511   5.776   7.576   3.874  0.2755 -0.7830  0.4343
 8024SOL     OW25512   7.583   1.546   6.466 -0.1415  0.0467 -0.0324
 8024SOL    HW125513   7.513   1.483   6.450 -1.7002  2.0320 -1.7718
 8024SOL    HW225514   7.580   1.605   6.390  2.5758  1.0235  0.4799
 8025SOL     OW25515   5.363   4.244   7.425  0.5633  0.5763 -0.1115
 8025SOL    HW125516   5.277   4.209   7.449  0.5819 -0.8450 -1.9054
 8025SOL    HW225517   5.423   4.205   7.489  0.0715  0.4317  0.2722
 8026SOL     OW25518   0.702   3.662   1.759 -0.0990  0.5429  0.1783
 8026SOL    HW125519   0.738   3.583   1.800 -0.1821  0.4927  0.1549
 8026SOL    HW225520   0.719   3.732   1.821 -2.7403  0.0170  1.6312
 8027SOL     OW25521   2.555   1.983   0.687 -0.4420  0.0699 -0.0952
 8027SOL    HW125522   2.519   1.901   0.722  0.7762 -0.5068 -0.1379
 8027SOL    HW225523   2.479   2.039   0.675 -1.2619 -0.9186  0.3024
 8028SOL     OW25524   0.917   0.486  10.165  0.1242 -0.3552 -0.4218
 8028SOL    HW125525   0.903   0.528  10.081 -1.7099 -0.0196  0.0203
 8028SOL    HW225526   0.836   0.501  10.214  0.5108 -1.9504  0.8029
 8029SOL     OW25527   2.920   4.184   7.050  0.3152 -0.1265 -0.1567
 8029SOL    HW125528   3.010   4.151   7.049  0.6173  0.5642  1.0337
 8029SOL    HW225529   2.878   4.135   7.121  0.2841  0.7722  0.4703
 8030SOL     OW25530   7.437   1.135  10.753 -0.1860  0.6892  0.0271
 8030SOL    HW125531   7.344   1.155  10.746 -0.3559  0.7785  1.9878
 8030SOL    HW225532   7.443   1.074  10.826  1.2687  0.3761 -0.3154
 8031SOL     OW25533   7.936   1.723   6.292 -0.0364  0.7282 -0.3360
 8031SOL    HW125534   7.993   1.727   6.369 -1.8540 -0.2188  1.1713
 8031SOL    HW225535   7.938   1.631   6.265  0.2726  0.9749 -1.1817
 8032SOL     OW25536   2.518   7.925   7.543  0.0128 -0.6069 -0.4087
 8032SOL    HW125537   2.601   7.952   7.582 -0.2503  0.2940 -0.4401
 8032SOL    HW225538   2.542   7.858   7.480  0.6214 -0.9549  0.1811
 8033SOL     OW25539   1.762   4.240   2.192 -0.1487  0.3781 -0.0510
 8033SOL    HW125540   1.693   4.266   2.130  1.2827  1.1999 -1.3768
 8033SOL    HW225541   1.747   4.146   2.207 -2.2457  0.7695  0.6648
 8034SOL     OW25542   0.539   1.058   4.781 -0.0825  0.1068 -0.3750
 8034SOL    HW125543   0.568   1.033   4.693  2.5766  1.8050 -0.0862
 8034SOL    HW225544   0.535   1.154   4.778 -1.3580  0.1371  0.9843
 8035SOL     OW25545   1.831   1.868   7.527  0.0885 -0.1325 -0.3343
 8035SOL    HW125546   1.870   1.790   7.566 -0.8182 -0.2511  0.3616
 8035SOL    HW225547   1.741   1.842   7.507 -0.3401  0.8410  0.2608
 8036SOL     OW25548   4.963   5.773   5.950 -0.5807 -0.0347 -0.4695
 8036SOL    HW125549   5.013   5.694   5.970  0.9561  0.5388 -1.8415
 8036SOL    HW225550   4.901   5.746   5.883 -1.1338 -0.4007  0.1690
 8037SOL     OW25551   2.514   7.421   0.420 -0.0222  0.5003  0.2432
 8037SOL    HW125552   2.446   7.441   0.356  0.4474 -1.7733 -1.1120
 8037SOL    HW225553   2.590   7.473   0.391 -0.2078  0.4999 -0.2586
 8038SOL     OW25554   5.466   0.263   1.602 -0.1320  0.0861 -0.3641
 8038SOL    HW125555   5.457   0.219   1.517  1.7341 -0.5534 -0.2883
 8038SOL    HW225556   5.554   0.302   1.599 -0.5145  1.0971  0.8224
 8039SOL     OW25557   6.896   7.725   6.276 -0.3898  0.0476 -0.3498
 8039SOL    HW125558   6.889   7.645   6.328 -0.5747 -2.6514 -4.1857
 8039SOL    HW225559   6.833   7.785   6.318  0.0287 -1.5396  2.8874
 8040SOL     OW25560   4.913   5.800   9.308 -0.0989  0.0325 -0.0988
 8040SOL    HW125561   4.888   5.788   9.216 -0.0840  0.4611 -0.1583
 8040SOL    HW225562   5.008   5.794   9.307 -0.0453  0.8184 -0.2302
 8041SOL     OW25563   1.924   5.006   4.926  0.0163 -0.2640 -0.3325
 8041SOL    HW125564   1.861   4.995   4.856 -0.7273  0.0185  0.2699
 8041SOL    HW225565   1.891   4.952   4.998 -0.4415  1.1107  0.5492
 8042SOL     OW25566   7.267   1.710   7.133  0.1385 -0.3114 -1.1474
 8042SOL    HW125567   7.290   1.625   7.095  0.5900 -0.0670 -1.4283
 8042SOL    HW225568   7.333   1.725   7.200 -0.3146 -0.4698 -0.6611
 8043SOL     OW25569   1.940   2.054   3.488  0.0209  0.4981 -0.1191
 8043SOL    HW125570   1.902   2.113   3.423  1.8113 -0.3732 -2.0582
 8043SOL    HW225571   1.892   1.972   3.477 -0.3889  0.6599  0.4228
 8044SOL     OW25572   2.556   7.095  11.968 -0.7192  0.2048  0.0483
 8044SOL    HW125573   2.534   7.076  11.877 -0.7305 -0.3033  0.1523
 8044SOL    HW225574   2.474   7.080  12.015 -0.5303 -0.2614  0.2382
 8045SOL     OW25575   2.891   2.017   6.517 -0.0728 -0.3809  0.4895
 8045SOL    HW125576   2.976   2.021   6.473 -1.1291  1.2140 -1.5736
 8045SOL    HW225577   2.894   2.087   6.582  0.3975 -0.7463  0.8698
 8046SOL     OW25578   6.793   2.563   6.146  0.2796  0.2187  0.0972
 8046SOL    HW125579   6.755   2.495   6.202 -1.5447  0.1338 -1.1695
 8046SOL    HW225580   6.733   2.637   6.154  0.8931  0.8014 -0.4908
 8047SOL     OW25581   3.887   1.717   0.582 -0.3066 -0.5181 -0.1906
 8047SOL    HW125582   3.952   1.650   0.604  1.4420  1.3778  0.7571
 8047SOL    HW225583   3.867   1.760   0.665 -2.0013 -0.3558 -0.6460
 8048SOL     OW25584   0.361   6.881  11.179 -0.1649 -0.2379  0.0006
 8048SOL    HW125585   0.360   6.803  11.234 -1.8358 -0.1845  0.0848
 8048SOL    HW225586   0.310   6.945  11.228 -0.5877  0.2243 -1.0308
 8049SOL     OW25587   6.630   3.478   5.692  0.6339  0.4596 -0.3614
 8049SOL    HW125588   6.590   3.401   5.732  3.4030 -0.6331  0.5274
 8049SOL    HW225589   6.570   3.550   5.713 -0.5200 -0.9353  1.4387
 8050SOL     OW25590   4.695   4.874  10.804  0.0166 -0.6303 -0.1500
 8050SOL    HW125591   4.614   4.832  10.773 -0.5126  0.1232  0.1857
 8050SOL    HW225592   4.738   4.904  10.724 -0.3577 -0.4727 -0.2985
 8051SOL     OW25593   0.889   1.521   9.613  0.0344 -0.7430 -0.5329
 8051SOL    HW125594   0.818   1.459   9.631  0.0611 -0.5919  0.1296
 8051SOL    HW225595   0.855   1.577   9.543 -0.8126 -0.1716  0.3108
 8052SOL     OW25596   4.555   4.024   5.280  0.0899 -0.6598  0.3098
 8052SOL    HW125597   4.523   3.937   5.255 -1.7901  0.5671 -2.0975
 8052SOL    HW225598   4.641   4.031   5.239 -0.8855 -0.4959 -1.8499
 8053SOL     OW25599   6.417   6.329   0.913  0.4747 -0.4031 -0.3892
 8053SOL    HW125600   6.393   6.371   0.830  1.1765 -0.9435 -0.8762
 8053SOL    HW225601   6.512   6.340   0.919  0.7487 -2.1876 -0.7129
 8054SOL     OW25602   1.240   3.552   9.596 -0.1379 -0.0287 -0.0107
 8054SOL    HW125603   1.278   3.594   9.519 -0.4833 -0.4423 -0.4108
 8054SOL    HW225604   1.163   3.506   9.563  0.4047 -1.2340  0.3598
 8055SOL     OW25605   1.695   7.671   4.302 -0.2184  0.0705  0.1178
 8055SOL    HW125606   1.622   7.611   4.318 -0.4650  0.4727  0.5255
 8055SOL    HW225607   1.656   7.742   4.251 -0.1654  0.4023  0.5383
 8056SOL     OW25608   6.362   7.146  11.575 -1.0654  0.5534 -0.1554
 8056SOL    HW125609   6.304   7.094  11.520 -2.1035 -0.4880  1.8310
 8056SOL    HW225610   6.307   7.176  11.648  0.1691  2.1408  0.1916
 8057SOL     OW25611   7.590   6.215  10.090 -0.1489  0.0673  0.5329
 8057SOL    HW125612   7.494   6.217  10.083 -0.1159  0.3221  0.1310
 8057SOL    HW225613   7.621   6.220   9.999  0.2720  2.2732  0.7350
 8058SOL     OW25614   0.072   6.904   5.117  0.5478 -0.3173  0.1032
 8058SOL    HW125615  -0.009   6.954   5.129  0.0751 -0.9592 -0.3105
 8058SOL    HW225616   0.098   6.921   5.027  0.2975 -0.9321 -0.0892
 8059SOL     OW25617   7.638   7.191   6.624 -0.7850 -0.3364  0.1601
 8059SOL    HW125618   7.644   7.147   6.539 -0.3769  0.2204 -0.1046
 8059SOL    HW225619   7.671   7.280   6.607 -1.4053  0.0098  0.7293
 8060SOL     OW25620   1.865   3.500   4.852 -0.1357 -0.1845  0.5662
 8060SOL    HW125621   1.846   3.444   4.777 -1.1437 -1.4909  1.7394
 8060SOL    HW225622   1.797   3.568   4.849 -0.5220 -0.5625  0.5956
 8061SOL     OW25623   6.270   6.616   6.971 -0.1017 -0.2614 -0.0598
 8061SOL    HW125624   6.350   6.599   7.022  0.7078 -0.8111 -1.4486
 8061SOL    HW225625   6.252   6.709   6.985 -1.2344 -0.8213  3.0104
 8062SOL     OW25626   2.222   7.243   2.371 -0.2479 -0.0257 -0.5064
 8062SOL    HW125627   2.187   7.303   2.438 -0.9666  1.6140 -2.2520
 8062SOL    HW225628   2.287   7.191   2.418 -0.4727  1.2786  1.4010
 8063SOL     OW25629   2.730   2.953   7.432  0.4191 -0.5556  0.0136
 8063SOL    HW125630   2.821   2.979   7.442  0.4323 -1.1712  1.8333
 8063SOL    HW225631   2.731   2.887   7.362  1.2718 -0.1187 -0.3937
 8064SOL     OW25632   4.452   0.367   7.287  0.9453  0.3282 -0.2188
 8064SOL    HW125633   4.391   0.371   7.214  0.9869  0.5844 -0.2404
 8064SOL    HW225634   4.528   0.416   7.258 -0.1535  3.0199  1.0479
 8065SOL     OW25635   7.145   4.933   8.225 -0.7592 -0.2148  0.8209
 8065SOL    HW125636   7.144   5.016   8.177  0.3050 -0.1673  0.8638
 8065SOL    HW225637   7.057   4.897   8.212 -1.4516  1.1990  1.2997
 8066SOL     OW25638   1.770   6.374   1.140  0.5220 -0.2103  0.2014
 8066SOL    HW125639   1.855   6.370   1.097  0.0023  1.0917 -1.0016
 8066SOL    HW225640   1.717   6.308   1.094  0.7602 -0.7966  0.7422
 8067SOL     OW25641   4.800   7.230   5.357 -0.4949 -0.2191 -0.0384
 8067SOL    HW125642   4.875   7.225   5.298 -0.3811 -0.5852  0.1365
 8067SOL    HW225643   4.725   7.240   5.299 -0.2344  1.0964 -0.1859
 8068SOL     OW25644   7.063   1.668   6.907 -0.1168  0.1307  0.1273
 8068SOL    HW125645   7.023   1.752   6.929 -2.2733 -1.0162  0.8298
 8068SOL    HW225646   7.017   1.638   6.829  0.6905 -0.3785 -0.1735
 8069SOL     OW25647   4.804   1.557   5.868  0.2001  0.3799  0.3292
 8069SOL    HW125648   4.736   1.605   5.916 -1.2794 -1.1526 -0.1348
 8069SOL    HW225649   4.791   1.582   5.776  1.1761  1.1177  0.3736
 8070SOL     OW25650   3.647   1.762  11.975 -0.0976 -0.3104 -0.0131
 8070SOL    HW125651   3.655   1.682  11.923 -0.8969 -0.6250  0.3380
 8070SOL    HW225652   3.605   1.824  11.916 -0.4229 -0.4695  0.0509
 8071SOL     OW25653   4.766   5.193   0.769  0.5838 -0.3614 -0.1297
 8071SOL    HW125654   4.676   5.194   0.736  1.1751 -1.8699 -1.9479
 8071SOL    HW225655   4.816   5.151   0.699  2.2444 -2.0676  1.9534
 8072SOL     OW25656   3.709   6.356   2.933 -0.3729 -0.0512 -0.4546
 8072SOL    HW125657   3.797   6.394   2.935  0.4392 -1.8265 -0.8422
 8072SOL    HW225658   3.706   6.307   2.851 -1.5443 -0.4498 -0.1967
 8073SOL     OW25659   3.483   1.249   0.074 -0.6281 -0.1732 -0.3216
 8073SOL    HW125660   3.570   1.283   0.098 -1.1541  1.6826 -0.8813
 8073SOL    HW225661   3.422   1.314   0.108 -1.8308 -1.4870  0.1017
 8074SOL     OW25662   1.858   6.860  11.733 -0.2493  0.1227  0.4229
 8074SOL    HW125663   1.936   6.806  11.745 -0.3479  0.1653  1.3635
 8074SOL    HW225664   1.837   6.853  11.640  0.5509 -0.3347  0.2733
 8075SOL     OW25665   3.420   5.696   9.196  0.3377 -0.5583  0.4578
 8075SOL    HW125666   3.417   5.621   9.255 -1.2503 -1.8523 -1.1250
 8075SOL    HW225667   3.347   5.681   9.135  2.2778  0.2682 -2.2744
 8076SOL     OW25668   1.774   3.202   2.345 -0.0614 -0.5882  0.6484
 8076SOL    HW125669   1.824   3.277   2.375 -0.2164 -0.7249  1.2595
 8076SOL    HW225670   1.831   3.126   2.362  0.7187 -0.5132 -1.3165
 8077SOL     OW25671   1.732   5.329   8.129  0.3102  0.2976 -0.0288
 8077SOL    HW125672   1.796   5.262   8.105  2.5935  2.3125  0.0089
 8077SOL    HW225673   1.690   5.294   8.208  0.4416 -1.6251 -0.7468
 8078SOL     OW25674   0.044   2.295   7.872 -0.2868 -0.2712 -0.3477
 8078SOL    HW125675   0.055   2.387   7.898 -0.6759 -0.6654  1.3069
 8078SOL    HW225676  -0.050   2.282   7.868 -0.2311 -0.7412 -0.0914
 8079SOL     OW25677   1.795   1.690  10.245  0.5022  0.6749 -0.7387
 8079SOL    HW125678   1.856   1.647  10.185  1.1235  1.0716 -0.4015
 8079SOL    HW225679   1.721   1.629  10.251  1.6834 -0.7214  0.3184
 8080SOL     OW25680   3.566   3.622   4.653 -0.1832 -0.1139  0.4111
 8080SOL    HW125681   3.478   3.658   4.640 -0.8483 -0.5327  3.1330
 8080SOL    HW225682   3.603   3.676   4.724  1.3808 -0.5915 -0.0108
 8081SOL     OW25683   5.371   4.480  11.139 -0.3355 -0.5011  0.1318
 8081SOL    HW125684   5.360   4.560  11.087  0.9883 -2.5758 -3.6789
 8081SOL    HW225685   5.285   4.467  11.180 -1.4554  1.3809 -1.4132
 8082SOL     OW25686   4.681   4.643   2.150 -0.0973 -0.1540  0.1805
 8082SOL    HW125687   4.638   4.603   2.074  0.2901  0.2701 -0.2747
 8082SOL    HW225688   4.621   4.628   2.223 -1.1858  0.7351 -0.5048
 8083SOL     OW25689   3.448   4.916   3.575 -0.6072 -0.0010 -0.1579
 8083SOL    HW125690   3.462   4.822   3.564  0.9020  0.2882 -0.8077
 8083SOL    HW225691   3.420   4.947   3.489 -0.2641  0.3003 -0.1605
 8084SOL     OW25692   7.900   7.316  11.678 -0.1834  0.2361 -0.0594
 8084SOL    HW125693   7.872   7.403  11.708 -1.4533 -0.2514  0.2212
 8084SOL    HW225694   7.840   7.255  11.720  1.0115 -0.8428  0.1541
 8085SOL     OW25695   7.764   2.510   1.964  0.1668 -0.0968  0.3914
 8085SOL    HW125696   7.709   2.566   1.910 -2.1630 -1.0304  1.6465
 8085SOL    HW225697   7.785   2.435   1.908 -0.7189 -0.2185  0.2212
 8086SOL     OW25698   7.881   2.430  11.305 -0.4901  0.2998  0.1848
 8086SOL    HW125699   7.855   2.371  11.375  1.7787  0.2245  1.0309
 8086SOL    HW225700   7.805   2.488  11.294 -0.8746  0.4346  2.8312
 8087SOL     OW25701   6.461   6.933   4.257  0.4944  0.1416 -0.2730
 8087SOL    HW125702   6.538   6.923   4.201  1.9706 -0.2566  1.7330
 8087SOL    HW225703   6.389   6.951   4.195  1.7265 -1.6713 -2.3759
 8088SOL     OW25704   1.819   6.801   8.717  0.4970  0.1717  0.1244
 8088SOL    HW125705   1.778   6.731   8.768 -0.0222  1.2979  1.3157
 8088SOL    HW225706   1.907   6.769   8.698  0.1039 -1.0040  0.2026
 8089SOL     OW25707   3.191   6.590   5.494  0.0625 -0.9008  0.3873
 8089SOL    HW125708   3.220   6.543   5.416  1.0820 -0.6394  0.5962
 8089SOL    HW225709   3.117   6.539   5.525  0.4064 -1.7094 -0.0688
 8090SOL     OW25710   0.651   0.763   8.701 -0.3327  0.0612 -0.5027
 8090SOL    HW125711   0.657   0.708   8.623  3.9954  1.6108 -1.5523
 8090SOL    HW225712   0.635   0.851   8.667  0.3868  0.5645  0.4086
 8091SOL     OW25713   1.640   7.076   9.109  0.1198  0.5416 -0.1182
 8091SOL    HW125714   1.606   7.156   9.150  1.6589  0.7912  0.7340
 8091SOL    HW225715   1.570   7.012   9.121 -2.5441  2.4339 -3.5573
 8092SOL     OW25716   3.823   1.065   9.346 -0.1923 -0.0420 -0.3848
 8092SOL    HW125717   3.901   1.093   9.394 -0.5705  0.9331 -0.3343
 8092SOL    HW225718   3.782   1.146   9.316 -1.2375 -0.5440 -0.3395
 8093SOL     OW25719   5.415   7.223   8.010  0.1847  0.2871  0.0161
 8093SOL    HW125720   5.420   7.127   8.004  0.8079  0.2810  0.5777
 8093SOL    HW225721   5.454   7.254   7.928  1.4146  0.0723  0.4940
 8094SOL     OW25722   5.524   1.448  10.906 -0.0577  0.0114 -0.6720
 8094SOL    HW125723   5.503   1.356  10.892 -0.9119 -0.1826  1.4738
 8094SOL    HW225724   5.451   1.496  10.867  0.4743 -0.1753 -1.9495
 8095SOL     OW25725   4.716   3.136   7.923 -0.1462  0.0438  0.5078
 8095SOL    HW125726   4.712   3.089   7.840 -3.0661  0.3204  0.3911
 8095SOL    HW225727   4.732   3.227   7.898 -0.6577  0.0681  0.2571
 8096SOL     OW25728   4.616   0.789   7.070  0.7483 -0.0168  0.7052
 8096SOL    HW125729   4.640   0.880   7.085  1.5016 -0.0765 -0.0914
 8096SOL    HW225730   4.665   0.740   7.136 -0.0190  0.1751  1.4446
 8097SOL     OW25731   7.616   7.825   0.826  0.6425  0.0224 -0.2775
 8097SOL    HW125732   7.644   7.762   0.759  0.9783 -0.7809  0.5938
 8097SOL    HW225733   7.666   7.800   0.904 -1.6168 -0.7321  1.0188
 8098SOL     OW25734   0.398   3.203   7.367  0.0807  1.0420  0.5417
 8098SOL    HW125735   0.408   3.271   7.434 -0.0089  2.5039 -0.8522
 8098SOL    HW225736   0.307   3.174   7.376  0.5185  0.0565  2.0672
 8099SOL     OW25737   5.155   0.554  11.186  0.2937 -0.4037  0.2492
 8099SOL    HW125738   5.248   0.561  11.207 -0.0743 -0.0547  1.8596
 8099SOL    HW225739   5.126   0.476  11.232 -0.9854  1.5165  2.9647
 8100SOL     OW25740   4.127   5.235   4.187 -0.9262 -0.1013  0.1877
 8100SOL    HW125741   4.208   5.286   4.182 -2.0462  1.7178 -0.5358
 8100SOL    HW225742   4.149   5.152   4.144  1.1354 -0.5677  1.9410
 8101SOL     OW25743   0.856   6.176   8.798  0.2053 -0.2644  0.4635
 8101SOL    HW125744   0.895   6.260   8.775  0.4048 -0.5193 -0.1450
 8101SOL    HW225745   0.793   6.160   8.728  0.5502 -0.8745  0.2897
 8102SOL     OW25746   5.622   1.179  10.558 -0.7403  0.0598  0.2840
 8102SOL    HW125747   5.529   1.154  10.561 -0.1819 -2.3921 -0.6726
 8102SOL    HW225748   5.662   1.131  10.631 -0.2104  1.1272  0.7121
 8103SOL     OW25749   0.461   7.167   7.306 -0.0949  0.2605 -0.1205
 8103SOL    HW125750   0.432   7.082   7.273  1.5100 -0.5210  0.3346
 8103SOL    HW225751   0.463   7.224   7.229 -1.5987  0.0221 -0.3512
 8104SOL     OW25752   3.200   3.778   0.387 -0.1024 -0.2677  0.1211
 8104SOL    HW125753   3.167   3.867   0.374  1.1072 -0.0012 -1.5786
 8104SOL    HW225754   3.173   3.731   0.308  1.7025 -0.5986 -0.3375
 8105SOL     OW25755   5.270   5.927   5.307 -0.2359  0.0045 -0.6069
 8105SOL    HW125756   5.262   5.833   5.321 -1.1928 -0.0364 -1.3175
 8105SOL    HW225757   5.277   5.936   5.211  2.9217  0.4577 -0.4413
 8106SOL     OW25758   7.608   2.320   3.789  0.3231 -0.3716 -0.5234
 8106SOL    HW125759   7.661   2.370   3.727  0.1578 -0.9000 -1.0959
 8106SOL    HW225760   7.671   2.264   3.836  0.1917 -1.6716 -1.8377
 8107SOL     OW25761   2.415   2.199  10.220  0.5397 -0.3743  0.4772
 8107SOL    HW125762   2.508   2.190  10.198  0.1121 -1.1456 -1.2182
 8107SOL    HW225763   2.369   2.158  10.146 -1.2182  1.8682  0.2239
 8108SOL     OW25764   6.029   4.134   5.249 -1.0468 -0.0804 -0.3975
 8108SOL    HW125765   5.970   4.104   5.181 -0.9483 -0.7620 -0.1865
 8108SOL    HW225766   6.117   4.120   5.213 -0.9560 -1.8419  0.4300
 8109SOL     OW25767   2.305   3.103   6.284  0.0487 -0.1090  0.5022
 8109SOL    HW125768   2.319   3.110   6.378 -0.1593  1.4631  0.4412
 8109SOL    HW225769   2.228   3.158   6.267  1.5672  1.7151 -0.9082
 8110SOL     OW25770   5.676   0.725   3.332 -0.2418 -0.0989 -0.6136
 8110SOL    HW125771   5.604   0.760   3.384 -0.3437 -0.3580 -0.5786
 8110SOL    HW225772   5.748   0.786   3.347  0.1132 -0.8044  0.8033
 8111SOL     OW25773   6.609   4.204   5.266 -0.0993 -0.0558  0.3543
 8111SOL    HW125774   6.558   4.126   5.283 -0.5183  0.1269 -0.0606
 8111SOL    HW225775   6.545   4.269   5.237  0.4598 -0.0674 -0.9740
 8112SOL     OW25776   2.771   6.992   5.326  0.1275  0.0824  0.3121
 8112SOL    HW125777   2.826   7.035   5.391  1.1395 -0.9587  0.1702
 8112SOL    HW225778   2.688   6.977   5.371  0.8498 -0.7295  1.4200
 8113SOL     OW25779   6.173   6.038   0.456  0.0113 -0.0435 -0.4186
 8113SOL    HW125780   6.218   6.038   0.371 -2.7748  2.5048 -2.0727
 8113SOL    HW225781   6.090   6.082   0.439 -1.2640 -0.6458  3.4010
 8114SOL     OW25782   3.691   0.532   6.504  0.1698 -0.0848 -0.4101
 8114SOL    HW125783   3.726   0.597   6.564  1.9209  0.0356 -1.4883
 8114SOL    HW225784   3.604   0.511   6.538  0.6377  0.8491  1.4500
 8115SOL     OW25785   3.681   6.408  10.258 -0.0923  0.2269  0.3524
 8115SOL    HW125786   3.664   6.498  10.284  2.5578  1.1545 -0.8771
 8115SOL    HW225787   3.742   6.375  10.324  0.8748  0.1802 -0.5403
 8116SOL     OW25788   2.142   5.727   9.777 -0.3733 -0.4192 -0.0558
 8116SOL    HW125789   2.163   5.633   9.773 -0.1619 -0.3367 -2.9606
 8116SOL    HW225790   2.117   5.750   9.687 -1.7455  2.0433  0.8575
 8117SOL     OW25791   3.700   7.355  10.300  0.1298  0.3964 -0.1071
 8117SOL    HW125792   3.689   7.449  10.287 -1.6578  0.2046 -0.1708
 8117SOL    HW225793   3.725   7.347  10.392 -0.2896  0.8980  0.0578
 8118SOL     OW25794   7.285   4.709   2.456  0.4169 -0.0786  0.2530
 8118SOL    HW125795   7.282   4.776   2.524  0.2356 -1.0432  1.2119
 8118SOL    HW225796   7.295   4.627   2.503  0.5723 -0.7444 -0.9043
 8119SOL     OW25797   5.976   2.986   1.836  0.0574 -0.0918  1.1037
 8119SOL    HW125798   6.035   2.966   1.763 -0.5070  0.8600  0.3528
 8119SOL    HW225799   5.910   2.917   1.833  0.0234 -0.0487  0.6759
 8120SOL     OW25800   4.837   5.410   1.917 -0.0314 -0.3222  0.3222
 8120SOL    HW125801   4.773   5.349   1.881 -0.6408  0.8546 -0.6886
 8120SOL    HW225802   4.804   5.432   2.004 -1.5384  0.9239 -0.5014
 8121SOL     OW25803   2.401   1.671   6.599  0.3133  0.7336  0.4983
 8121SOL    HW125804   2.468   1.656   6.532 -0.5329 -0.9753 -0.0274
 8121SOL    HW225805   2.371   1.760   6.583  2.1683  1.4122  0.5140
 8122SOL     OW25806   0.947   0.666  10.857 -0.1540  0.2856 -0.0136
 8122SOL    HW125807   0.871   0.610  10.872 -0.6426  0.6572 -1.0274
 8122SOL    HW225808   0.945   0.686  10.764  1.0994  0.4380 -0.0318
 8123SOL     OW25809   6.979   4.052   9.663  0.3166 -0.4822 -0.3773
 8123SOL    HW125810   7.041   4.047   9.591 -0.9588  1.1090 -1.6758
 8123SOL    HW225811   7.007   4.128   9.714 -0.2898 -0.0271 -0.7135
 8124SOL     OW25812   1.927   0.645   3.289  0.1526 -0.0655  0.0424
 8124SOL    HW125813   1.855   0.591   3.258 -0.6613  1.1043 -0.1606
 8124SOL    HW225814   1.901   0.735   3.269  0.8910  0.5164  1.5060
 8125SOL     OW25815   0.008   3.783   1.918  0.0389 -0.2594  0.1716
 8125SOL    HW125816   0.081   3.722   1.907  0.2529  0.0101  0.0916
 8125SOL    HW225817   0.049   3.868   1.936 -0.1002  0.6537 -3.1130
 8126SOL     OW25818   0.335   3.692   9.929  0.5429  0.5590 -0.3657
 8126SOL    HW125819   0.287   3.720   9.851 -0.4553 -0.4625 -0.1370
 8126SOL    HW225820   0.388   3.768   9.953 -2.1441  2.3353  0.3129
 8127SOL     OW25821   5.978   4.130  11.640 -0.1007 -0.1938 -0.2841
 8127SOL    HW125822   6.045   4.140  11.708 -0.4862 -0.8544  0.2005
 8127SOL    HW225823   6.027   4.098  11.564  0.4372  1.1387 -0.5415
 8128SOL     OW25824   3.550   7.049   1.391  0.3991  0.5644  0.1481
 8128SOL    HW125825   3.538   7.097   1.309  1.9001  0.6158 -0.0601
 8128SOL    HW225826   3.463   7.014   1.411  0.2815 -0.6477 -2.2117
 8129SOL     OW25827   5.570   5.775   3.047  0.4185  0.7182  0.0579
 8129SOL    HW125828   5.484   5.733   3.047  1.3881 -1.4061  0.1823
 8129SOL    HW225829   5.594   5.781   3.140  1.2138 -0.5321 -0.0497
 8130SOL     OW25830   5.061   1.727   2.423 -0.2713 -0.0262 -0.2389
 8130SOL    HW125831   4.980   1.755   2.380  0.3653 -0.7891 -2.0551
 8130SOL    HW225832   5.054   1.631   2.428 -0.7986  0.0974  2.4437
 8131SOL     OW25833   4.288   3.637   3.698  0.8088  0.0670  0.2263
 8131SOL    HW125834   4.263   3.572   3.764  0.1748  0.4942  0.4113
 8131SOL    HW225835   4.219   3.633   3.632  0.2527  1.2040  0.7090
 8132SOL     OW25836   4.039   3.208   2.946 -0.3096  0.0218  0.1985
 8132SOL    HW125837   4.010   3.117   2.936 -3.3389  0.7622  1.4379
 8132SOL    HW225838   4.013   3.250   2.864 -1.2025  0.2925  0.6100
 8133SOL     OW25839   2.980   5.891   0.775  0.0365 -0.5552  0.1048
 8133SOL    HW125840   2.969   5.812   0.721  0.2798 -0.6746  0.2337
 8133SOL    HW225841   3.060   5.932   0.742  0.1073 -0.5524  0.2783
 8134SOL     OW25842   3.278   1.170   3.788  0.3328 -0.5025 -0.3249
 8134SOL    HW125843   3.367   1.200   3.805  0.0558  2.0555 -2.7953
 8134SOL    HW225844   3.287   1.076   3.771  2.2869 -0.5921  0.9491
 8135SOL     OW25845   4.409   4.346   7.088  0.7743 -0.2365 -0.1170
 8135SOL    HW125846   4.400   4.267   7.036  1.6855 -1.3915  1.3951
 8135SOL    HW225847   4.475   4.398   7.042  2.1283 -1.5789  0.2178
 8136SOL     OW25848   7.358   7.158   9.941 -0.7857  0.0615  0.5054
 8136SOL    HW125849   7.330   7.234   9.992 -2.2307  0.3218 -0.6337
 8136SOL    HW225850   7.358   7.085  10.004  3.0561  1.3254  2.2744
 8137SOL     OW25851   3.595   3.293   0.595  0.1307 -0.3379 -0.2599
 8137SOL    HW125852   3.622   3.378   0.631 -1.3500 -0.8198  2.2318
 8137SOL    HW225853   3.501   3.291   0.609  0.2476 -2.7336  0.5436
 8138SOL     OW25854   7.191   3.765   9.014 -0.2296  0.5396 -0.3145
 8138SOL    HW125855   7.207   3.826   8.942  3.8549 -0.8894 -0.9008
 8138SOL    HW225856   7.191   3.679   8.972 -0.9431 -0.1629  1.0749
 8139SOL     OW25857   1.397   6.436  10.813  0.0111  0.1910  0.2947
 8139SOL    HW125858   1.478   6.393  10.786  0.4790  0.0691  1.8375
 8139SOL    HW225859   1.339   6.427  10.737  0.9918 -0.8615 -0.3535
 8140SOL     OW25860   4.583   1.985   2.660 -0.2374  0.3443 -0.0592
 8140SOL    HW125861   4.537   2.003   2.577 -1.6042 -1.5524  0.2126
 8140SOL    HW225862   4.663   1.941   2.634  0.4933  1.8192 -0.4390
 8141SOL     OW25863   6.170   2.574   7.732 -0.3976  0.3162 -0.4828
 8141SOL    HW125864   6.109   2.602   7.663 -1.7255  0.0154  0.5249
 8141SOL    HW225865   6.232   2.647   7.740 -1.4935  1.2893 -0.5526
 8142SOL     OW25866   6.851   3.697   6.193 -0.6360 -0.0832 -0.3730
 8142SOL    HW125867   6.870   3.790   6.201 -1.0311 -0.0884  0.6636
 8142SOL    HW225868   6.922   3.653   6.240 -1.6699 -0.2066  1.1081
 8143SOL     OW25869   1.921   1.520   3.604  0.0698  0.1207 -0.0653
 8143SOL    HW125870   1.879   1.602   3.578 -1.6806 -0.4680  0.7446
 8143SOL    HW225871   1.974   1.495   3.528 -0.7891  1.0793 -1.0124
 8144SOL     OW25872   1.806   7.734   2.167  0.4499  0.7984 -0.4610
 8144SOL    HW125873   1.715   7.706   2.157  0.7076 -0.1963 -0.1542
 8144SOL    HW225874   1.829   7.707   2.256  0.3045  3.2773  0.4064
 8145SOL     OW25875   4.727   2.222  10.792 -0.4780  0.2844 -0.9699
 8145SOL    HW125876   4.797   2.236  10.729 -0.9840  0.1449 -1.5705
 8145SOL    HW225877   4.649   2.204  10.739 -0.6751 -0.9750 -0.3088
 8146SOL     OW25878   7.225   0.802   9.632 -0.0193 -0.1949 -0.0679
 8146SOL    HW125879   7.169   0.837   9.562  1.6704 -0.3348 -1.5717
 8146SOL    HW225880   7.256   0.718   9.598  0.1283 -0.7007  1.2646
 8147SOL     OW25881   4.721   5.038   6.642 -0.0871 -0.1670  0.7895
 8147SOL    HW125882   4.628   5.022   6.625 -0.5211  1.3400  1.5461
 8147SOL    HW225883   4.730   5.027   6.737  1.0265 -2.5484  0.4832
 8148SOL     OW25884   0.099   4.745   1.653  0.2635 -0.5797 -0.4835
 8148SOL    HW125885   0.142   4.792   1.724 -2.5241  2.0433 -0.2876
 8148SOL    HW225886   0.028   4.697   1.696  0.0420 -0.9212 -1.2132
 8149SOL     OW25887   7.576   7.816  11.574  0.3980 -0.3513  0.1504
 8149SOL    HW125888   7.502   7.756  11.580  0.2815 -0.2132  0.0876
 8149SOL    HW225889   7.591   7.846  11.663 -0.1441  0.2572  0.0429
 8150SOL     OW25890   7.965   7.431   3.603  0.7829  0.4205  0.5101
 8150SOL    HW125891   8.026   7.414   3.675  1.4129 -1.1427 -0.3574
 8150SOL    HW225892   8.005   7.502   3.554  1.5054 -0.0515  0.4118
 8151SOL     OW25893   0.055   2.221   1.706  0.0497  0.2522  0.6801
 8151SOL    HW125894   0.089   2.156   1.644 -0.1655  1.3791 -0.6564
 8151SOL    HW225895  -0.015   2.175   1.753  0.2928 -0.6527  0.1843
 8152SOL     OW25896   7.428   1.369  11.802 -0.4076 -0.0180  0.1155
 8152SOL    HW125897   7.419   1.386  11.896 -1.6646 -0.2523  0.0574
 8152SOL    HW225898   7.518   1.340  11.791  0.1011  1.1415  1.0622
 8153SOL     OW25899   1.823   1.572   5.098 -0.4330 -0.6600 -0.4785
 8153SOL    HW125900   1.855   1.662   5.099 -1.2073 -0.3560 -1.3503
 8153SOL    HW225901   1.734   1.578   5.134  0.1414 -1.3641  1.1478
 8154SOL     OW25902   1.205   4.444   4.138 -0.3323 -0.6201  0.2469
 8154SOL    HW125903   1.163   4.374   4.088  0.0188 -1.5279  1.1968
 8154SOL    HW225904   1.144   4.463   4.209 -0.2501 -0.2302  0.2143
 8155SOL     OW25905   5.972   5.108   0.709  0.1515 -0.0021  0.0329
 8155SOL    HW125906   6.055   5.062   0.721  0.3963  0.6176  0.7939
 8155SOL    HW225907   5.995   5.201   0.717 -0.3792  0.2586 -1.1755
 8156SOL     OW25908   4.121   0.237  12.103 -0.1149 -0.1902 -0.3021
 8156SOL    HW125909   4.071   0.168  12.146 -1.1139  1.4933  1.3955
 8156SOL    HW225910   4.095   0.232  12.011 -2.6358 -0.1045  0.3348
 8157SOL     OW25911   0.112   0.899   7.402  0.4461 -0.4323  0.1915
 8157SOL    HW125912   0.182   0.964   7.411 -0.5998  0.6866  0.4390
 8157SOL    HW225913   0.033   0.945   7.429 -0.2736 -1.9283  0.7313
 8158SOL     OW25914   5.166   0.262   5.947  0.0655 -0.4574 -0.6232
 8158SOL    HW125915   5.084   0.219   5.971 -0.5155  0.2133 -1.3322
 8158SOL    HW225916   5.147   0.356   5.955  1.2841 -0.2945  0.8514
 8159SOL     OW25917   6.398   0.261  11.754 -0.0576 -0.0164 -0.2449
 8159SOL    HW125918   6.351   0.287  11.675 -1.3713 -0.5951  0.2992
 8159SOL    HW225919   6.353   0.181  11.782  0.2805  0.2731  1.1759
 8160SOL     OW25920   0.299   4.259  12.432 -0.0959 -0.2108 -0.3383
 8160SOL    HW125921   0.325   4.289  12.519 -1.2915  1.2029 -0.4295
 8160SOL    HW225922   0.238   4.187  12.449  1.2987 -1.3786 -0.0805
 8161SOL     OW25923   6.128   1.575   8.774 -0.3547 -0.2091 -0.0004
 8161SOL    HW125924   6.069   1.639   8.734 -0.5940 -0.5757 -0.2449
 8161SOL    HW225925   6.112   1.494   8.725  0.4182 -0.2912 -0.1294
 8162SOL     OW25926   4.951   4.667   7.370  0.1466  0.8024 -0.9512
 8162SOL    HW125927   4.997   4.584   7.353  0.5009  0.6983  0.4355
 8162SOL    HW225928   4.995   4.730   7.313  1.2373  0.4473 -0.5454
 8163SOL     OW25929   1.169   6.964   2.549  0.1319 -0.4385  0.1480
 8163SOL    HW125930   1.206   6.934   2.632  0.4602 -0.0352  0.1519
 8163SOL    HW225931   1.084   7.001   2.572 -0.3395 -1.4654  0.1254
 8164SOL     OW25932   1.468   5.142   4.316  0.0775 -0.6128 -0.2649
 8164SOL    HW125933   1.544   5.110   4.268  0.4172 -0.4345  0.1495
 8164SOL    HW225934   1.504   5.203   4.381 -0.5704  0.7120 -1.1200
 8165SOL     OW25935   1.155   7.609   5.430 -0.2102 -0.2593  0.4072
 8165SOL    HW125936   1.247   7.611   5.405  0.2183 -0.4669  1.8708
 8165SOL    HW225937   1.110   7.660   5.362  1.0020 -0.0022 -0.2222
 8166SOL     OW25938   5.846   6.023   0.466  0.2422 -0.0705 -0.4176
 8166SOL    HW125939   5.813   6.043   0.378  2.7246  0.5684 -1.2958
 8166SOL    HW225940   5.884   5.935   0.458 -0.3957 -0.4249  0.3129
 8167SOL     OW25941   2.659   1.241   3.025  0.3360 -0.1751  0.1010
 8167SOL    HW125942   2.739   1.259   2.975  0.3177 -1.6819 -0.5207
 8167SOL    HW225943   2.667   1.150   3.052 -0.4554  0.1189  1.4206
 8168SOL     OW25944   2.969   7.466   4.650  0.5444  0.5095  0.5047
 8168SOL    HW125945   2.950   7.378   4.681  0.1807  0.5204  0.3208
 8168SOL    HW225946   2.976   7.457   4.555 -2.1754  1.1274  0.1771
 8169SOL     OW25947   6.757   7.058   5.837 -0.2601  0.8253 -0.2989
 8169SOL    HW125948   6.679   7.004   5.851  1.8188 -2.5947 -0.7024
 8169SOL    HW225949   6.763   7.068   5.742  0.3207  0.1655 -0.3384
 8170SOL     OW25950   4.458   7.328   7.356  0.3207 -0.2731  0.3611
 8170SOL    HW125951   4.498   7.315   7.442 -1.0131 -1.7962  0.8070
 8170SOL    HW225952   4.404   7.250   7.343  2.1923 -1.2078 -2.8587
 8171SOL     OW25953   7.815   6.197   7.950 -0.0268 -0.2812 -0.9053
 8171SOL    HW125954   7.901   6.163   7.926  1.1051  2.2492 -0.7206
 8171SOL    HW225955   7.773   6.218   7.867  0.4489  0.4910 -0.9673
 8172SOL     OW25956   6.310   5.709   6.072 -0.2331  0.3236 -0.3034
 8172SOL    HW125957   6.379   5.685   6.011 -0.1872 -1.5389  0.4194
 8172SOL    HW225958   6.355   5.749   6.146 -0.1832  1.4574 -0.9298
 8173SOL     OW25959   4.937   3.589  11.994  0.2077 -0.0074 -0.0865
 8173SOL    HW125960   4.856   3.609  12.042  0.3814  1.3064 -0.3077
 8173SOL    HW225961   4.983   3.527  12.050 -0.7105 -0.3749  0.2886
 8174SOL     OW25962   6.874   7.596  10.674 -0.1444 -0.1802 -0.8698
 8174SOL    HW125963   6.925   7.517  10.691 -1.2539 -1.1535 -1.8545
 8174SOL    HW225964   6.907   7.660  10.737  0.5849 -1.5148  0.1612
 8175SOL     OW25965   1.684   1.173   7.378  0.2815 -0.1355  0.1549
 8175SOL    HW125966   1.704   1.080   7.373 -0.0232 -0.1925 -0.0478
 8175SOL    HW225967   1.659   1.197   7.288 -0.0552  0.0421  0.2922
 8176SOL     OW25968   0.188   0.298   4.653 -0.3968  0.3761  0.6582
 8176SOL    HW125969   0.097   0.311   4.627 -0.8799  0.4455  2.2675
 8176SOL    HW225970   0.211   0.378   4.699  0.3338  0.1556  0.6909
 8177SOL     OW25971   5.508   7.890   4.109 -0.0904  0.3392  0.1483
 8177SOL    HW125972   5.417   7.860   4.102 -0.3083  1.0656 -0.2555
 8177SOL    HW225973   5.511   7.938   4.192  0.1872 -0.5437  0.6570
 8178SOL     OW25974   1.018   0.004   2.964 -0.0447  0.1171 -0.0382
 8178SOL    HW125975   1.074  -0.066   2.931 -1.4870 -0.6191 -1.0386
 8178SOL    HW225976   1.075   0.080   2.971  1.4408 -0.9973  0.5580
 8179SOL     OW25977   0.717   4.077   6.527  0.1444 -0.2203 -0.1318
 8179SOL    HW125978   0.673   4.065   6.611  0.6536  0.5993  0.2641
 8179SOL    HW225979   0.808   4.052   6.544 -0.0411 -1.4987 -0.8352
 8180SOL     OW25980   1.901   5.320   1.862  0.0157 -0.1528 -0.1788
 8180SOL    HW125981   1.929   5.378   1.933 -0.9408  0.0392  0.0518
 8180SOL    HW225982   1.976   5.262   1.848  0.0811 -0.4611  1.2685
 8181SOL     OW25983   6.346   1.218  12.407  0.2032 -0.1948  0.9803
 8181SOL    HW125984   6.410   1.197  12.338 -0.4285  1.2911 -0.0950
 8181SOL    HW225985   6.354   1.145  12.468  2.3440 -0.4831  0.4657
 8182SOL     OW25986   7.051   6.036   7.171 -0.5172  0.1902 -0.0573
 8182SOL    HW125987   7.090   5.956   7.135  0.6880  1.2547 -1.2722
 8182SOL    HW225988   6.961   6.035   7.139 -0.7374 -1.0284  0.5562
 8183SOL     OW25989   6.805   4.975   7.857 -0.1402  0.7375 -0.4508
 8183SOL    HW125990   6.727   4.953   7.805 -0.9616  1.2854  0.5061
 8183SOL    HW225991   6.770   4.991   7.945  1.0113  1.4250 -0.1115
 8184SOL     OW25992   5.002   1.702   0.088 -0.9031 -0.3388  0.3801
 8184SOL    HW125993   4.937   1.633   0.104  0.0722 -1.8022 -1.4909
 8184SOL    HW225994   5.018   1.697  -0.006  0.9270  0.9048  0.5855
 8185SOL     OW25995   3.578   4.644  11.726  0.0462  0.2993 -0.0005
 8185SOL    HW125996   3.570   4.691  11.643 -0.0286 -0.1149 -0.2316
 8185SOL    HW225997   3.638   4.697  11.778  1.3652 -0.2461 -0.9049
 8186SOL     OW25998   5.006   0.612   7.049 -0.1889 -0.1833  0.1495
 8186SOL    HW125999   5.022   0.663   7.128 -0.1567 -0.5408  0.3769
 8186SOL    HW226000   5.049   0.660   6.979  0.5724 -0.3455  0.5012
 8187SOL     OW26001   5.202   6.101   9.043  0.5123  0.1788  0.1672
 8187SOL    HW126002   5.222   6.133   9.131  1.3052  2.0629 -0.6489
 8187SOL    HW226003   5.282   6.117   8.993 -0.7171  1.4808 -1.4994
 8188SOL     OW26004   3.901   7.706   2.288  0.1498 -0.3442 -0.2488
 8188SOL    HW126005   3.975   7.739   2.236  0.5002  0.3831  0.6872
 8188SOL    HW226006   3.827   7.760   2.261  0.6952  1.1943  1.1836
 8189SOL     OW26007   5.374   6.836  11.112  0.0349 -0.2429  0.2341
 8189SOL    HW126008   5.327   6.753  11.113 -0.5586  0.0898  0.2199
 8189SOL    HW226009   5.444   6.825  11.176 -0.2065 -0.6550  0.4293
 8190SOL     OW26010   0.149   1.600   2.613  0.4476 -0.1087  0.2516
 8190SOL    HW126011   0.199   1.681   2.624 -0.0341  0.2787 -0.3287
 8190SOL    HW226012   0.211   1.539   2.572  1.4795 -0.7582  2.6291
 8191SOL     OW26013   4.152   5.407   0.646  0.0055 -0.7358  0.6688
 8191SOL    HW126014   4.131   5.381   0.736 -1.7821  1.8272  1.1231
 8191SOL    HW226015   4.245   5.386   0.636 -0.1153 -2.4905  2.5561
 8192SOL     OW26016   2.014   0.571   4.629  0.2386  0.1511 -0.6689
 8192SOL    HW126017   2.082   0.593   4.565  0.6813 -1.5957 -0.8400
 8192SOL    HW226018   2.062   0.535   4.704 -0.3930  0.6526 -0.0065
 8193SOL     OW26019   0.285   5.817   3.798  0.7188  1.0079 -0.6624
 8193SOL    HW126020   0.243   5.896   3.764 -2.6542  0.0881  0.8827
 8193SOL    HW226021   0.262   5.816   3.891  1.9388 -1.0423 -0.3054
 8194SOL     OW26022   5.979   5.864   5.919  0.5047  0.0465 -0.0169
 8194SOL    HW126023   5.890   5.899   5.926 -0.7585 -2.8227 -0.2314
 8194SOL    HW226024   6.021   5.889   6.001 -0.2701  1.9409 -0.1482
 8195SOL     OW26025   3.849   1.818   6.161  0.0224 -0.1164  0.3437
 8195SOL    HW126026   3.849   1.742   6.102  2.1175 -0.2345  0.3920
 8195SOL    HW226027   3.832   1.893   6.104  1.1126 -0.3245 -0.2972
 8196SOL     OW26028   7.907   1.282   2.480  0.4851  0.3243 -0.0225
 8196SOL    HW126029   7.993   1.264   2.440  0.0157  0.0305 -0.9331
 8196SOL    HW226030   7.865   1.343   2.420 -0.6426 -0.9157 -0.5534
 8197SOL     OW26031   3.570   7.428   3.891  0.8108 -0.1502  0.1110
 8197SOL    HW126032   3.654   7.392   3.922  0.4548 -0.8861  0.2319
 8197SOL    HW226033   3.520   7.442   3.971  1.0508  0.9162  0.0915
 8198SOL     OW26034   5.735   3.490   9.659  0.2919 -0.3034 -0.0093
 8198SOL    HW126035   5.672   3.418   9.665  0.0557  0.0203  2.3666
 8198SOL    HW226036   5.801   3.469   9.725  1.8310  0.1961 -1.3300
 8199SOL     OW26037   2.101   7.032  11.790  0.0121  0.4920 -0.3601
 8199SOL    HW126038   2.024   6.976  11.794  0.0281  0.5229  0.9896
 8199SOL    HW226039   2.068   7.115  11.755 -0.2323  0.0129 -1.2984
 8200SOL     OW26040   3.730   7.495   5.886  0.0451  0.1245 -0.1654
 8200SOL    HW126041   3.641   7.522   5.864 -0.7662 -2.4375 -0.3061
 8200SOL    HW226042   3.774   7.483   5.802  0.4575  1.0250 -0.0996
 8201SOL     OW26043   7.661   1.674   1.304 -0.4364 -0.3337 -0.4583
 8201SOL    HW126044   7.657   1.745   1.368  2.8718 -0.0627 -0.3787
 8201SOL    HW226045   7.607   1.704   1.231 -0.8110  1.2742  0.4406
 8202SOL     OW26046   0.338   5.832   8.728 -0.2531 -0.3342  0.2538
 8202SOL    HW126047   0.380   5.803   8.647 -0.7540 -1.5029  0.3810
 8202SOL    HW226048   0.283   5.757   8.754 -0.4210  0.1796  1.4425
 8203SOL     OW26049   2.068   5.458   7.772 -0.3734  0.2954 -0.2726
 8203SOL    HW126050   2.029   5.377   7.805 -1.7397  0.5741 -1.1224
 8203SOL    HW226051   2.103   5.502   7.849 -0.8945 -0.4273  0.3869
 8204SOL     OW26052   5.717   0.040   3.948 -0.0212  0.1167 -0.0228
 8204SOL    HW126053   5.660  -0.018   3.998 -0.6199  0.7549  0.0467
 8204SOL    HW226054   5.729   0.117   4.004  2.6056 -0.8352  0.8669
 8205SOL     OW26055   3.641   2.501   7.965  0.2923 -0.0967 -0.2707
 8205SOL    HW126056   3.702   2.474   8.033  3.2175 -0.6253 -2.8737
 8205SOL    HW226057   3.654   2.595   7.955  0.1137 -0.0751 -0.3128
 8206SOL     OW26058   7.335   7.697   8.872 -0.2661 -0.0911 -0.0163
 8206SOL    HW126059   7.267   7.756   8.905 -0.7479  1.6300 -3.5561
 8206SOL    HW226060   7.307   7.610   8.899 -3.0576  0.7193  0.0184
 8207SOL     OW26061   4.109   2.881  11.274  0.2109  0.2234  0.3832
 8207SOL    HW126062   4.031   2.839  11.238  0.8193  1.0424 -2.0323
 8207SOL    HW226063   4.080   2.970  11.296  0.4767  0.5701 -0.6405
 8208SOL     OW26064   4.530   2.780   6.772 -0.1178 -0.2994  0.1576
 8208SOL    HW126065   4.471   2.852   6.795  1.4694  1.0461  0.1457
 8208SOL    HW226066   4.589   2.817   6.706  1.5723 -1.1884  1.1186
 8209SOL     OW26067   6.728   5.742  11.137 -0.0350  0.4283  0.5505
 8209SOL    HW126068   6.693   5.704  11.057  1.3524  0.9577 -0.3453
 8209SOL    HW226069   6.680   5.824  11.148  1.7563  1.8432 -1.4361
 8210SOL     OW26070   3.871   4.612   4.043 -0.1658 -0.0592  1.0262
 8210SOL    HW126071   3.934   4.597   3.973  0.6060 -0.9098  1.8709
 8210SOL    HW226072   3.821   4.689   4.015 -0.5582 -0.9669 -0.9153
 8211SOL     OW26073   1.358   0.384   6.948 -0.4394 -0.3751  0.1023
 8211SOL    HW126074   1.369   0.417   6.859  2.1261 -1.5080 -0.1118
 8211SOL    HW226075   1.366   0.462   7.003 -0.0563  0.0995 -0.5946
 8212SOL     OW26076   0.200   0.328   1.487  0.1393 -0.2669  0.1746
 8212SOL    HW126077   0.254   0.405   1.505 -0.3908  0.0350  0.4696
 8212SOL    HW226078   0.261   0.255   1.496  0.3222  0.0044  1.3304
 8213SOL     OW26079   2.901   0.107   7.000 -0.1200  0.2095 -0.6218
 8213SOL    HW126080   2.897   0.059   7.083 -1.5172 -0.8817 -1.2847
 8213SOL    HW226081   2.983   0.078   6.960  2.6274  3.5086  1.8768
 8214SOL     OW26082   0.971   7.761   3.213 -0.5916  0.2859 -0.0437
 8214SOL    HW126083   1.046   7.702   3.209 -0.9560 -0.1594 -0.4753
 8214SOL    HW226084   0.902   7.710   3.256 -1.2148  0.0416 -1.2803
 8215SOL     OW26085   5.388   5.197   8.997 -0.2659  0.7596 -0.4022
 8215SOL    HW126086   5.334   5.228   8.925 -0.7728  0.9655  0.0634
 8215SOL    HW226087   5.423   5.113   8.967 -1.7670  0.0634 -0.2672
 8216SOL     OW26088   5.205   7.305   2.176 -0.3818 -0.4570 -0.2498
 8216SOL    HW126089   5.212   7.265   2.263  0.3362  0.1945 -0.0023
 8216SOL    HW226090   5.117   7.280   2.146 -0.7800 -0.4093  0.8075
 8217SOL     OW26091   7.709   1.476   0.949 -0.2763 -0.1681  0.2212
 8217SOL    HW126092   7.629   1.528   0.959 -1.5185 -2.3331  2.9721
 8217SOL    HW226093   7.749   1.478   1.036  2.6951  0.7327 -1.0583
 8218SOL     OW26094   2.362   6.784   2.461  0.1066 -0.1855 -0.1942
 8218SOL    HW126095   2.457   6.790   2.449  0.1780  0.0811  0.4221
 8218SOL    HW226096   2.342   6.850   2.528 -0.4272 -0.6374  0.1110
 8219SOL     OW26097   2.346   3.818   1.301 -0.2627 -0.5137  0.1344
 8219SOL    HW126098   2.344   3.740   1.247 -0.9315 -0.1024 -0.4620
 8219SOL    HW226099   2.290   3.797   1.376 -0.5948 -0.5510 -0.1195
 8220SOL     OW26100   6.651   5.102  11.186  0.2064  1.0725 -0.2275
 8220SOL    HW126101   6.659   5.193  11.157  2.2531  1.1792  0.5462
 8220SOL    HW226102   6.647   5.108  11.281 -0.6561  0.3899 -0.2150
 8221SOL     OW26103   2.832   6.023   7.574  0.2594  0.1427 -0.6689
 8221SOL    HW126104   2.893   6.062   7.511 -0.7646 -2.0893 -3.2258
 8221SOL    HW226105   2.746   6.033   7.533 -0.4926 -1.0902  0.5347
 8222SOL     OW26106   0.633   6.499   6.579  0.3131  0.1375 -0.0447
 8222SOL    HW126107   0.671   6.531   6.661  0.8435 -0.0375 -0.2189
 8222SOL    HW226108   0.708   6.482   6.522 -0.0049 -0.4769 -0.2978
 8223SOL     OW26109   6.667   5.003   7.130 -0.2569  0.5721 -0.1261
 8223SOL    HW126110   6.598   5.066   7.108 -0.2133  0.5032 -0.4736
 8223SOL    HW226111   6.732   5.014   7.060 -0.3368  0.0091 -0.2949
 8224SOL     OW26112   4.232   5.367   2.543 -0.1137 -0.0973 -0.3044
 8224SOL    HW126113   4.213   5.305   2.614  2.1671 -1.0173 -0.4200
 8224SOL    HW226114   4.273   5.315   2.475 -2.2637  0.7754 -2.3898
 8225SOL     OW26115   0.512   6.746   6.337 -0.8103 -0.6518 -0.9841
 8225SOL    HW126116   0.582   6.681   6.343 -0.5381 -0.2980 -0.2762
 8225SOL    HW226117   0.551   6.827   6.370 -1.4880 -0.3949 -0.7985
 8226SOL     OW26118   2.208   6.692   7.005 -0.3997  0.1772  0.1854
 8226SOL    HW126119   2.177   6.783   7.006  0.0288  0.3379 -0.4719
 8226SOL    HW226120   2.284   6.693   6.946 -0.3332 -0.5892  0.2482
 8227SOL     OW26121   7.095   4.766  10.148  0.1321  0.3953 -0.0936
 8227SOL    HW126122   7.147   4.835  10.188  1.2506 -0.2008 -0.4782
 8227SOL    HW226123   7.155   4.722  10.088 -1.2760  0.7763 -1.8716
 8228SOL     OW26124   2.408   1.372   1.079 -0.0242 -0.0672 -0.2283
 8228SOL    HW126125   2.452   1.301   1.124  0.4779 -0.1098 -0.7628
 8228SOL    HW226126   2.316   1.345   1.073 -0.2264  0.2279  1.3010
 8229SOL     OW26127   0.425   3.596  12.412 -0.0502  0.7740 -0.2253
 8229SOL    HW126128   0.483   3.620  12.341  0.2320  2.0148  0.4005
 8229SOL    HW226129   0.414   3.676  12.464 -1.0801  0.1808  0.5419
 8230SOL     OW26130   7.043   3.491   0.295  0.0294  0.8075  0.7618
 8230SOL    HW126131   6.968   3.532   0.253 -0.6437  0.2615  1.4090
 8230SOL    HW226132   7.113   3.499   0.231 -0.0201  3.0548  0.8981
 8231SOL     OW26133   4.462   3.218   3.887  0.0428  0.4175  0.0200
 8231SOL    HW126134   4.505   3.254   3.810  1.7658 -1.5839 -0.0364
 8231SOL    HW226135   4.369   3.227   3.869  0.4115  0.8551 -1.8437
 8232SOL     OW26136   7.537   2.905   4.139  0.2152  0.1244 -0.4796
 8232SOL    HW126137   7.633   2.904   4.140  0.2271  0.7716 -0.4952
 8232SOL    HW226138   7.512   2.960   4.213 -0.1333  0.2593 -0.6908
 8233SOL     OW26139   4.707   6.516   8.363 -0.0169 -0.0705  1.1641
 8233SOL    HW126140   4.642   6.566   8.314  0.6042 -0.1964  0.1934
 8233SOL    HW226141   4.655   6.459   8.420 -0.7820 -0.6229 -0.0537
 8234SOL     OW26142   1.090   7.626  10.914 -0.0713 -0.0758  0.1366
 8234SOL    HW126143   1.014   7.681  10.896 -0.6732 -0.4221  1.5375
 8234SOL    HW226144   1.064   7.539  10.883  0.0913 -0.0196 -0.1657
 8235SOL     OW26145   7.544   2.166   1.510  0.0649  0.0617  0.1754
 8235SOL    HW126146   7.500   2.200   1.432  0.0878 -2.5804 -1.1074
 8235SOL    HW226147   7.623   2.218   1.518 -0.6189  1.2755 -0.7481
 8236SOL     OW26148   5.770   3.789   9.308  0.2351 -0.7047  0.3277
 8236SOL    HW126149   5.813   3.875   9.309 -1.2974  0.1131 -0.5789
 8236SOL    HW226150   5.786   3.755   9.220 -0.4358 -0.6482  0.1755
 8237SOL     OW26151   1.949   6.079   6.796 -0.3895 -0.7811  0.2769
 8237SOL    HW126152   1.901   6.149   6.840  0.2954 -0.5371  0.6439
 8237SOL    HW226153   1.892   6.002   6.804 -0.3517 -0.7017  1.4589
 8238SOL     OW26154   5.881   4.460   9.045  0.4183  0.0520  0.2364
 8238SOL    HW126155   5.849   4.548   9.064  0.3882  0.1223 -0.1220
 8238SOL    HW226156   5.889   4.458   8.949  0.7709 -0.2109  0.2692
 8239SOL     OW26157   0.211   4.027   3.458 -0.2789  0.1462  0.0581
 8239SOL    HW126158   0.141   4.086   3.485 -1.3526 -0.2280 -1.7515
 8239SOL    HW226159   0.199   3.949   3.513 -1.1954  0.1435 -0.1283
 8240SOL     OW26160   0.259   6.823   6.407  0.6302  1.0330 -0.1167
 8240SOL    HW126161   0.192   6.773   6.454  0.1515  0.4960 -1.3173
 8240SOL    HW226162   0.330   6.760   6.393 -1.0346 -0.2959 -3.9588
 8241SOL     OW26163   0.239   4.220  11.185  0.0405  0.0856  0.0086
 8241SOL    HW126164   0.254   4.310  11.215  0.1692 -0.3520  1.3169
 8241SOL    HW226165   0.218   4.171  11.264 -2.7244 -0.5205 -0.9783
 8242SOL     OW26166   2.686   0.462   3.621 -0.2441 -0.0233 -0.3114
 8242SOL    HW126167   2.772   0.504   3.624  0.6905 -1.6213 -2.4026
 8242SOL    HW226168   2.676   0.421   3.707  1.0202  0.2646 -0.0091
 8243SOL     OW26169   6.771   6.075   0.305 -0.0576  0.0970 -0.3155
 8243SOL    HW126170   6.848   6.098   0.254 -0.6404  1.4428 -0.6425
 8243SOL    HW226171   6.801   6.008   0.366  1.2672  0.3087 -0.7088
 8244SOL     OW26172   4.114   4.922   6.267  0.1316 -0.5033 -0.4840
 8244SOL    HW126173   4.202   4.896   6.296 -0.2553 -1.2788  0.0278
 8244SOL    HW226174   4.062   4.842   6.272 -0.3731 -0.2772 -1.7466
 8245SOL     OW26175   1.387   5.922   7.674  0.6824  0.2650 -0.4256
 8245SOL    HW126176   1.471   5.877   7.683  2.5094  3.2787 -0.9487
 8245SOL    HW226177   1.404   5.991   7.610 -2.0655  1.3104 -0.1490
 8246SOL     OW26178   6.766   6.290   5.545 -0.1639 -0.0229  0.1767
 8246SOL    HW126179   6.832   6.241   5.497  1.0121  0.1052  1.6031
 8246SOL    HW226180   6.769   6.378   5.506 -0.1415 -0.2581 -0.3639
 8247SOL     OW26181   0.563   6.863   8.531  0.0903  0.0109  0.4235
 8247SOL    HW126182   0.562   6.904   8.617  0.6540  1.4039 -0.2042
 8247SOL    HW226183   0.479   6.817   8.524 -0.1979  0.3662  1.4852
 8248SOL     OW26184   3.467   0.249   9.250  0.3734  0.4217 -0.3341
 8248SOL    HW126185   3.382   0.206   9.262  1.4319 -1.1567  2.7968
 8248SOL    HW226186   3.524   0.180   9.216  0.9569  0.7203  0.0186
 8249SOL     OW26187   2.513   3.754   7.385 -0.9360  0.0691  0.2629
 8249SOL    HW126188   2.550   3.701   7.456  1.7229  1.6722  0.2086
 8249SOL    HW226189   2.584   3.760   7.321 -2.0089  1.6780 -0.8350
 8250SOL     OW26190   0.298   3.880   2.829 -0.3974  0.5793 -0.4246
 8250SOL    HW126191   0.355   3.804   2.822 -1.7728 -0.4612 -0.7220
 8250SOL    HW226192   0.226   3.851   2.885 -0.8029  1.7658 -0.2973
 8251SOL     OW26193   6.008   3.934   4.338 -0.1342  0.1170  0.2195
 8251SOL    HW126194   6.051   3.903   4.258 -0.5507  0.0784  0.0090
 8251SOL    HW226195   6.032   4.027   4.343  0.0536  0.0713  0.1535
 8252SOL     OW26196   0.563   6.489   4.530  0.1854 -0.2255 -0.3551
 8252SOL    HW126197   0.637   6.429   4.528 -0.4915 -1.0996  0.2482
 8252SOL    HW226198   0.522   6.475   4.615 -0.5818  0.3639 -0.6130
 8253SOL     OW26199   6.363   7.002   6.403 -0.2928  0.1753 -0.1750
 8253SOL    HW126200   6.316   7.062   6.345 -1.1956  0.6135  0.9756
 8253SOL    HW226201   6.446   6.985   6.357 -0.5947  1.2113 -1.1645
 8254SOL     OW26202   5.988   4.065   8.563 -0.2190 -0.2395 -0.7064
 8254SOL    HW126203   6.012   3.973   8.556  0.6346 -0.1519  0.7706
 8254SOL    HW226204   6.035   4.108   8.490 -0.2269 -0.8786 -1.0931
 8255SOL     OW26205   0.733   2.447   6.556 -0.2551  0.0178 -0.2592
 8255SOL    HW126206   0.766   2.467   6.644 -1.3155  3.4296 -0.5140
 8255SOL    HW226207   0.654   2.394   6.572  0.2540 -0.4816  0.7500
 8256SOL     OW26208   2.713   3.282   5.990  0.2778  0.1280  0.0694
 8256SOL    HW126209   2.712   3.372   6.021  0.8184 -0.0958  0.7510
 8256SOL    HW226210   2.646   3.238   6.042  1.2701 -0.2757  1.0529
 8257SOL     OW26211   3.813   1.316   4.136 -0.0662  0.4645 -0.2336
 8257SOL    HW126212   3.741   1.367   4.098 -1.1305 -0.0101  1.0721
 8257SOL    HW226213   3.830   1.247   4.071 -0.0916  1.1650 -1.0073
 8258SOL     OW26214   4.148   4.477  11.410 -0.2209 -0.3543 -0.4526
 8258SOL    HW126215   4.235   4.514  11.425 -0.4747 -0.1447  0.5548
 8258SOL    HW226216   4.098   4.548  11.370 -0.5260  0.2246  0.9025
 8259SOL     OW26217   1.432   7.644   1.911 -0.3287  0.1412  0.2959
 8259SOL    HW126218   1.411   7.603   1.995 -0.9971 -0.1138  0.0140
 8259SOL    HW226219   1.446   7.736   1.932 -0.6104  0.0988  0.6720
 8260SOL     OW26220   2.550   2.665   7.050 -0.4681 -0.6301  0.3019
 8260SOL    HW126221   2.542   2.597   6.982  0.0769 -1.6336  1.2190
 8260SOL    HW226222   2.607   2.731   7.010 -2.1845  0.0498 -1.1650
 8261SOL     OW26223   2.772   2.897   4.490  0.1646 -0.0881 -0.4929
 8261SOL    HW126224   2.727   2.968   4.443 -0.2097 -1.2988 -2.0522
 8261SOL    HW226225   2.782   2.828   4.425 -1.7592 -2.5178  1.5676
 8262SOL     OW26226   4.763   1.163   0.888 -0.0729 -0.3162  0.5572
 8262SOL    HW126227   4.803   1.084   0.852  1.8055  0.1337  1.5610
 8262SOL    HW226228   4.736   1.213   0.812 -0.4287 -1.4815 -0.1092
 8263SOL     OW26229   1.541   3.637  11.661 -0.6582 -0.7479 -0.1902
 8263SOL    HW126230   1.527   3.608  11.751  1.1552 -1.6938 -0.1650
 8263SOL    HW226231   1.518   3.730  11.662  1.8876 -0.0254  1.9425
 8264SOL     OW26232   6.606   5.681   3.184 -0.0570 -0.3288  0.1662
 8264SOL    HW126233   6.657   5.713   3.110 -0.5365  0.3500  0.1188
 8264SOL    HW226234   6.669   5.672   3.256  0.2974 -0.4256 -0.1582
 8265SOL     OW26235   6.045   4.160  10.792 -0.2488  0.2350 -0.0419
 8265SOL    HW126236   6.064   4.143  10.885  1.8611  0.7550 -0.3291
 8265SOL    HW226237   5.984   4.091  10.768  1.0984 -1.4715  1.1243
 8266SOL     OW26238   3.192   3.466   1.038 -0.4361 -0.1282 -0.0487
 8266SOL    HW126239   3.247   3.419   0.975 -0.9312 -0.7379 -0.0425
 8266SOL    HW226240   3.229   3.555   1.041 -0.9312  0.1956 -1.8979
 8267SOL     OW26241   1.453   5.571   8.279  0.0041 -0.1610 -0.0268
 8267SOL    HW126242   1.443   5.477   8.265 -0.0272 -0.1130 -0.3338
 8267SOL    HW226243   1.406   5.588   8.360  1.0373 -0.6130  0.6811
 8268SOL     OW26244   0.351   2.472  11.499  0.3325  0.5644 -0.2025
 8268SOL    HW126245   0.278   2.532  11.514 -0.5820 -0.6092  0.1752
 8268SOL    HW226246   0.425   2.513  11.544 -0.5784  0.7935  1.1511
 8269SOL     OW26247   7.701   7.379   1.572  0.1213 -0.0240 -0.0052
 8269SOL    HW126248   7.639   7.418   1.634  0.2667  1.1513 -0.5780
 8269SOL    HW226249   7.771   7.444   1.565  0.1622 -0.1972 -1.3192
 8270SOL     OW26250   6.267   1.653   4.056 -0.4864 -0.2113  0.2421
 8270SOL    HW126251   6.281   1.598   4.133 -0.5175 -0.7078 -0.1066
 8270SOL    HW226252   6.324   1.729   4.071 -0.0951 -0.5517  0.5048
 8271SOL     OW26253   7.377   3.590   5.898 -0.1751  0.4392  0.1743
 8271SOL    HW126254   7.324   3.655   5.945 -2.1283  0.1756 -1.5476
 8271SOL    HW226255   7.404   3.528   5.966 -1.5790  0.9199  1.2256
 8272SOL     OW26256   4.619   5.811   8.689  0.2452  0.7945  0.4376
 8272SOL    HW126257   4.543   5.801   8.745  0.4552  0.0323  0.6094
 8272SOL    HW226258   4.670   5.731   8.703 -0.4255 -0.1508 -1.9316
 8273SOL     OW26259   3.261   5.431   8.450 -0.0741 -0.2004  0.1239
 8273SOL    HW126260   3.321   5.484   8.502 -0.6485  2.0160 -1.3173
 8273SOL    HW226261   3.317   5.391   8.383  0.1896 -0.4052  0.4660
 8274SOL     OW26262   6.517   4.004   9.759  0.5608 -0.0517  0.6411
 8274SOL    HW126263   6.490   3.956   9.837  1.6355  1.4237  1.9723
 8274SOL    HW226264   6.551   4.087   9.792  1.7192  0.3234 -1.3463
 8275SOL     OW26265   6.219   5.281  11.912  0.3932  0.1275  0.3543
 8275SOL    HW126266   6.196   5.189  11.899  0.5929  0.1813 -0.3961
 8275SOL    HW226267   6.173   5.306  11.992 -1.0277 -0.1507 -0.3483
 8276SOL     OW26268   4.732   4.236   7.727 -0.5681  0.3815 -0.4452
 8276SOL    HW126269   4.659   4.223   7.788  0.5090 -2.5488  0.3851
 8276SOL    HW226270   4.707   4.186   7.649  0.7029 -1.1054  0.0556
 8277SOL     OW26271   0.970   1.729   3.210 -0.3817  0.2191 -0.0433
 8277SOL    HW126272   0.956   1.702   3.301 -3.3783 -0.1882 -0.5140
 8277SOL    HW226273   1.035   1.668   3.176 -1.5163 -1.6503  1.0059
 8278SOL     OW26274   6.393   7.731  10.254  0.2759  0.5865  0.0120
 8278SOL    HW126275   6.379   7.812  10.205  0.8320  0.6478 -0.0601
 8278SOL    HW226276   6.398   7.663  10.186  1.3025  0.7066 -0.0507
 8279SOL     OW26277   3.015   1.742   2.796 -0.0589 -0.2095  0.6086
 8279SOL    HW126278   2.954   1.739   2.723 -0.0216 -0.1539  0.5744
 8279SOL    HW226279   2.982   1.813   2.852 -1.0560 -1.3634  1.5148
 8280SOL     OW26280   1.742   1.798   7.184 -0.5096  0.2125 -0.2241
 8280SOL    HW126281   1.775   1.875   7.231 -1.4964  0.7372 -0.3533
 8280SOL    HW226282   1.667   1.832   7.134 -0.5888 -0.7161 -0.7462
 8281SOL     OW26283   6.566   6.611  10.566  0.0235  0.3261  0.1481
 8281SOL    HW126284   6.627   6.642  10.632  1.2643 -1.9175  0.1547
 8281SOL    HW226285   6.619   6.558  10.506 -1.8568 -1.8956  0.2647
 8282SOL     OW26286   2.374   0.486   5.238  0.0154 -0.2701 -0.4948
 8282SOL    HW126287   2.437   0.530   5.295  0.5083  0.0421 -1.2774
 8282SOL    HW226288   2.384   0.393   5.260  1.2824 -0.3004 -1.1324
 8283SOL     OW26289   0.642   2.286   6.256 -0.6502 -0.3150 -0.1589
 8283SOL    HW126290   0.679   2.331   6.332  0.3959  0.7105 -1.2197
 8283SOL    HW226291   0.665   2.194   6.268  1.6827  0.1868 -0.4184
 8284SOL     OW26292   1.071   7.175  11.457  1.0839  0.3959 -0.4544
 8284SOL    HW126293   1.114   7.095  11.427 -0.1540 -0.1721 -0.7884
 8284SOL    HW226294   1.006   7.195  11.389  0.1596  0.6674  0.4807
 8285SOL     OW26295   4.516   5.560   7.755 -0.1429 -0.5261 -0.1070
 8285SOL    HW126296   4.437   5.613   7.760  0.4082  0.3530 -0.4099
 8285SOL    HW226297   4.524   5.537   7.662 -0.3540 -1.1184  0.0152
 8286SOL     OW26298   3.376   4.564   2.459  0.5217 -0.1559  0.1624
 8286SOL    HW126299   3.401   4.655   2.450 -0.6346  0.5320  2.8871
 8286SOL    HW226300   3.459   4.517   2.472  1.0863  0.5427 -0.8515
 8287SOL     OW26301   7.071   6.317  11.658 -0.6444 -0.2357 -0.3743
 8287SOL    HW126302   7.037   6.228  11.665 -1.0016 -0.2084 -1.5053
 8287SOL    HW226303   7.058   6.341  11.566  1.2021  0.2855 -0.5459
 8288SOL     OW26304   3.653   1.402   5.164 -0.1658  0.4788 -0.0896
 8288SOL    HW126305   3.708   1.388   5.241  1.4185  1.9438 -0.8701
 8288SOL    HW226306   3.579   1.344   5.176  0.0547  0.6288  2.5036
 8289SOL     OW26307   0.217   7.816   8.776 -0.0772  0.0072 -0.4455
 8289SOL    HW126308   0.129   7.798   8.745 -1.0980  0.9708  1.6932
 8289SOL    HW226309   0.219   7.911   8.789  0.6710 -0.2004  1.1975
 8290SOL     OW26310   5.373   0.867  10.530  0.0742 -0.0147 -0.1460
 8290SOL    HW126311   5.317   0.798  10.566  1.5387 -1.3545 -0.3436
 8290SOL    HW226312   5.448   0.871  10.588 -0.3767  2.0936  0.3810
 8291SOL     OW26313   4.940   3.467   2.365 -0.4134  0.2299  0.0935
 8291SOL    HW126314   4.962   3.523   2.291  0.5908  0.5635  0.6296
 8291SOL    HW226315   4.905   3.387   2.325  2.6648 -0.7585 -0.8920
 8292SOL     OW26316   4.211   6.632  10.292  0.0036 -0.1059  0.2608
 8292SOL    HW126317   4.207   6.559  10.354 -0.4265 -0.3778 -0.0845
 8292SOL    HW226318   4.151   6.697  10.329  0.1886 -0.0327  0.4322
 8293SOL     OW26319   5.241   3.561   7.357 -0.1018 -0.1599 -0.4716
 8293SOL    HW126320   5.238   3.637   7.416 -0.4836  0.5983 -1.4358
 8293SOL    HW226321   5.153   3.558   7.318  0.4845  0.0720 -1.8629
 8294SOL     OW26322   4.493   2.966   7.614  0.3243  0.3394 -0.1887
 8294SOL    HW126323   4.569   2.931   7.568  2.2832  2.0253  1.5554
 8294SOL    HW226324   4.478   3.052   7.574 -0.2220  0.3303 -0.0194
 8295SOL     OW26325   5.964   3.850   6.698  0.4930 -0.3691  0.1571
 8295SOL    HW126326   5.961   3.889   6.611  0.9725 -1.7662 -0.5250
 8295SOL    HW226327   5.891   3.890   6.745 -0.6749 -0.6322 -1.3490
 8296SOL     OW26328   0.557   2.714   0.501  0.0453  0.1172 -0.3881
 8296SOL    HW126329   0.591   2.636   0.458  1.2314  1.1878 -1.4928
 8296SOL    HW226330   0.614   2.727   0.577  0.2338  0.2581 -0.5547
 8297SOL     OW26331   4.736   6.300  11.408  0.0753 -0.6415  0.1092
 8297SOL    HW126332   4.733   6.376  11.350  1.3691 -1.5411 -1.2095
 8297SOL    HW226333   4.699   6.229  11.356  0.1685 -1.2117  0.8080
 8298SOL     OW26334   7.888   5.183  10.142  0.1680  0.1359 -0.0777
 8298SOL    HW126335   7.887   5.275  10.168 -1.9077  0.3052 -0.5476
 8298SOL    HW226336   7.896   5.184  10.047  0.9674 -0.2080 -0.0187
 8299SOL     OW26337   2.629   3.031   0.549 -0.0303 -0.3720 -0.0313
 8299SOL    HW126338   2.602   2.948   0.510  1.0249  0.0026 -1.6530
 8299SOL    HW226339   2.597   3.027   0.639 -1.4772 -1.8005 -0.5704
 8300SOL     OW26340   2.149   2.523   4.419 -0.0536  0.2495 -0.4869
 8300SOL    HW126341   2.069   2.575   4.431 -0.2854 -0.2668  0.2653
 8300SOL    HW226342   2.213   2.585   4.383 -0.0886  1.2520  1.0903
 8301SOL     OW26343   2.909   1.505   9.032  0.2922 -0.0065 -0.3486
 8301SOL    HW126344   2.884   1.581   8.980 -0.4867 -0.4127 -0.5759
 8301SOL    HW226345   2.828   1.458   9.048  0.8516 -1.1882 -0.8428
 8302SOL     OW26346   6.264   7.845   7.018  0.4657 -0.3629  0.7362
 8302SOL    HW126347   6.317   7.814   7.091 -0.2145 -0.9660  0.9796
 8302SOL    HW226348   6.229   7.766   6.977  0.0554  0.0086  0.3474
 8303SOL     OW26349   1.617   6.702   2.952 -0.5033 -0.1119  0.0261
 8303SOL    HW126350   1.665   6.783   2.936 -0.6283 -0.0690 -0.1389
 8303SOL    HW226351   1.677   6.632   2.927 -0.7740 -0.0416 -0.8792
 8304SOL     OW26352   7.696   0.383   2.219  0.2617  0.6066 -0.6715
 8304SOL    HW126353   7.610   0.343   2.229  0.8897 -0.2568  2.5789
 8304SOL    HW226354   7.691   0.430   2.136 -3.3812  0.7339 -0.5592
 8305SOL     OW26355   3.118   5.548  12.280 -0.5233 -0.2415 -0.2541
 8305SOL    HW126356   3.131   5.460  12.316  0.3494 -0.3174 -0.7280
 8305SOL    HW226357   3.061   5.535  12.204  0.1486 -0.4928 -0.7216
 8306SOL     OW26358   4.195   7.213   3.768 -0.4053  0.0193  0.0299
 8306SOL    HW126359   4.174   7.144   3.831 -0.4990 -1.2149 -1.3246
 8306SOL    HW226360   4.243   7.169   3.698 -0.1066  1.4043 -0.6788
 8307SOL     OW26361   6.417   7.514   0.305 -0.4678 -0.2061 -0.5891
 8307SOL    HW126362   6.481   7.444   0.307  0.6386  0.7379 -1.5190
 8307SOL    HW226363   6.442   7.572   0.377 -0.8019 -0.2703 -0.4188
 8308SOL     OW26364   2.026   0.261  11.548  0.4527  0.0801 -0.1290
 8308SOL    HW126365   2.058   0.261  11.458 -0.7240  0.4738 -0.5597
 8308SOL    HW226366   2.005   0.170  11.566  2.3534 -0.3051  0.3852
 8309SOL     OW26367   1.911   6.277   9.148 -0.5071 -0.8616 -0.3324
 8309SOL    HW126368   1.875   6.205   9.201 -1.5356 -0.1696 -0.0554
 8309SOL    HW226369   1.923   6.239   9.061 -3.8267 -0.6704 -1.0082
 8310SOL     OW26370   2.840   4.624   1.407  0.1504  0.3650  0.3875
 8310SOL    HW126371   2.928   4.635   1.445  0.1408 -0.8141  0.8047
 8310SOL    HW226372   2.856   4.583   1.322  0.0125 -0.0650  0.5618
 8311SOL     OW26373   6.316   7.481   1.996  0.0100  0.3343  0.6279
 8311SOL    HW126374   6.356   7.402   1.960 -0.6246 -0.1535  0.9752
 8311SOL    HW226375   6.347   7.551   1.939  0.4701 -0.1823  0.2308
 8312SOL     OW26376   1.703   0.401   5.036 -0.1800  0.1254 -0.6628
 8312SOL    HW126377   1.759   0.395   5.113 -1.6094 -0.8663  0.3463
 8312SOL    HW226378   1.667   0.489   5.039 -1.8106 -0.5430  1.0043
 8313SOL     OW26379   2.204   7.539   5.725  0.3839 -0.3732  0.1788
 8313SOL    HW126380   2.272   7.591   5.683  0.9342 -0.2180  1.2210
 8313SOL    HW226381   2.234   7.448   5.716  0.7122 -0.3091  0.5874
 8314SOL     OW26382   7.408   4.368   4.957  0.2954  0.2894 -0.1430
 8314SOL    HW126383   7.437   4.281   4.927  0.5059  0.2428  0.1946
 8314SOL    HW226384   7.316   4.355   4.980  0.1607  0.2997 -0.6626
 8315SOL     OW26385   0.969   4.954  11.849 -0.1428  0.7116  0.0566
 8315SOL    HW126386   0.926   4.871  11.833  0.9405  0.2393 -0.5155
 8315SOL    HW226387   1.025   4.938  11.925  0.0272  0.9330 -0.0204
 8316SOL     OW26388   5.767   3.169   4.696 -0.4018 -0.2017  0.1076
 8316SOL    HW126389   5.746   3.149   4.605 -0.2862  0.1841 -0.0068
 8316SOL    HW226390   5.791   3.262   4.695  1.2416 -0.6036  0.2458
 8317SOL     OW26391   4.206   2.233   2.368  0.2269 -0.2795  0.2327
 8317SOL    HW126392   4.216   2.307   2.309  1.6821 -1.1425 -0.6562
 8317SOL    HW226393   4.117   2.201   2.352  0.5381 -0.3975 -1.4090
 8318SOL     OW26394   6.513   4.250   0.806 -0.1967 -0.1506 -0.2627
 8318SOL    HW126395   6.538   4.239   0.898  0.7905 -0.3379 -0.5518
 8318SOL    HW226396   6.423   4.283   0.810  0.3390  1.2770  0.8096
 8319SOL     OW26397   4.490   1.561  11.269 -0.4648  0.1172  0.3862
 8319SOL    HW126398   4.569   1.613  11.284 -1.1292  1.3992 -0.3847
 8319SOL    HW226399   4.426   1.597  11.330 -0.9863  0.3245 -0.2747
 8320SOL     OW26400   6.681   1.547   8.047  0.0031 -0.0166 -0.3376
 8320SOL    HW126401   6.750   1.515   8.106  0.0071  1.3393  0.4430
 8320SOL    HW226402   6.600   1.534   8.096  0.0276  1.3379  0.1256
 8321SOL     OW26403   1.312   3.882   5.174  0.2589  0.5423 -0.2434
 8321SOL    HW126404   1.396   3.837   5.182 -0.4273 -0.6664  0.5106
 8321SOL    HW226405   1.287   3.869   5.083  0.5401  0.2240 -0.2793
 8322SOL     OW26406   6.466   5.223   5.387 -0.4624  0.3209  0.3518
 8322SOL    HW126407   6.483   5.289   5.454  2.3890 -1.2121  1.3186
 8322SOL    HW226408   6.545   5.225   5.332 -1.4487 -0.5396 -1.1608
 8323SOL     OW26409   1.416   4.058   1.475  0.4201  0.3574 -0.0814
 8323SOL    HW126410   1.509   4.039   1.486  1.0288  0.4021 -3.9125
 8323SOL    HW226411   1.413   4.146   1.438 -1.2451  0.6311  0.6151
 8324SOL     OW26412   4.245   7.420  11.114  0.0747  0.3497 -0.3565
 8324SOL    HW126413   4.270   7.432  11.205  0.5165 -0.9043 -0.2874
 8324SOL    HW226414   4.151   7.404  11.116  0.3558 -1.4354  0.0936
 8325SOL     OW26415   7.058   7.764   5.004  0.1156  0.8115 -0.0670
 8325SOL    HW126416   7.123   7.788   4.938 -1.7504  1.1123 -1.8737
 8325SOL    HW226417   6.983   7.732   4.954 -0.8376 -0.3397  1.9780
 8326SOL     OW26418   6.406   4.262   1.681 -0.0127 -0.6132  0.1884
 8326SOL    HW126419   6.330   4.216   1.717 -1.0783 -1.5621 -2.9252
 8326SOL    HW226420   6.368   4.329   1.624  1.5490  0.8350  0.7632
 8327SOL     OW26421   7.949   2.974   4.639  0.4267 -0.0937 -0.1259
 8327SOL    HW126422   7.857   2.976   4.610  0.3387  1.1645  0.2165
 8327SOL    HW226423   7.993   3.037   4.582  0.9696 -0.2770  0.0890
 8328SOL     OW26424   0.051   4.367   1.431  0.0658  0.1518 -0.3995
 8328SOL    HW126425   0.110   4.307   1.476 -1.8879 -0.9016  0.9126
 8328SOL    HW226426   0.109   4.426   1.383  2.1112 -2.4399 -1.3957
 8329SOL     OW26427   2.027   1.617   7.137  0.2748 -0.3597 -0.4521
 8329SOL    HW126428   1.947   1.623   7.084  0.5118  0.5625 -0.7212
 8329SOL    HW226429   2.098   1.639   7.077  0.4951  1.2881  0.3682
 8330SOL     OW26430   5.220   7.079   6.930 -0.3211  0.3289  0.0932
 8330SOL    HW126431   5.141   7.130   6.913  0.8010  1.7585 -1.1334
 8330SOL    HW226432   5.288   7.145   6.946  0.7279 -0.8466  0.6660
 8331SOL     OW26433   6.598   7.630   8.390 -0.0983 -0.2455 -0.0686
 8331SOL    HW126434   6.686   7.595   8.375 -0.9102 -1.8350 -1.5303
 8331SOL    HW226435   6.600   7.718   8.352  0.9220 -0.1817  0.1111
 8332SOL     OW26436   1.022   2.667   9.135  0.1748  0.2874 -0.6971
 8332SOL    HW126437   1.032   2.574   9.115  1.2327  0.7202 -2.3701
 8332SOL    HW226438   0.939   2.672   9.182  1.0164 -1.7199  1.1527
 8333SOL     OW26439   7.693   3.298  10.654 -0.6331 -0.3533 -0.0557
 8333SOL    HW126440   7.619   3.306  10.593  1.2453  0.3666 -2.3648
 8333SOL    HW226441   7.713   3.204  10.654  0.7879 -0.1172 -2.4573
 8334SOL     OW26442   6.337   2.408   3.532 -0.2919  0.1167 -0.9195
 8334SOL    HW126443   6.296   2.494   3.529 -1.3434 -0.2814  0.8769
 8334SOL    HW226444   6.428   2.424   3.507 -0.8677  1.4360 -2.3386
 8335SOL     OW26445   7.418   4.001   0.316 -0.1676 -0.6835 -0.2876
 8335SOL    HW126446   7.393   3.910   0.329  0.7831 -0.8926  0.1749
 8335SOL    HW226447   7.511   4.004   0.339 -0.6209  0.7993  1.5670
 8336SOL     OW26448   0.459   2.581   2.741  0.3032  0.2106  0.1074
 8336SOL    HW126449   0.506   2.589   2.659  1.2801  2.0409  0.8044
 8336SOL    HW226450   0.526   2.589   2.809 -0.7067  0.6227  1.1061
 8337SOL     OW26451   7.647   7.815   4.533 -0.3407 -0.0231 -0.3823
 8337SOL    HW126452   7.669   7.835   4.443 -0.4770 -1.2729 -0.7143
 8337SOL    HW226453   7.728   7.781   4.571 -0.0278  1.3759  0.2554
 8338SOL     OW26454   0.688   3.782   6.340 -0.2273  0.1726 -0.4876
 8338SOL    HW126455   0.628   3.856   6.347 -0.3927  0.1439 -1.5084
 8338SOL    HW226456   0.741   3.801   6.263  2.0775  0.8950  1.1893
 8339SOL     OW26457   3.709   3.251   7.517 -0.7789 -0.2061 -0.5093
 8339SOL    HW126458   3.755   3.329   7.486  0.2979  0.0009  1.4619
 8339SOL    HW226459   3.698   3.197   7.438  4.0813 -0.8620 -1.0777
 8340SOL     OW26460   6.156   7.181   6.567 -0.3392 -0.0739 -0.5540
 8340SOL    HW126461   6.216   7.195   6.494 -0.2277  2.6330 -0.0446
 8340SOL    HW226462   6.195   7.230   6.640 -1.8023 -0.4976  0.5631
 8341SOL     OW26463   7.062   4.560   0.244 -0.0948  0.0289  0.4887
 8341SOL    HW126464   7.114   4.588   0.319 -0.7004 -1.5266  1.5234
 8341SOL    HW226465   7.088   4.620   0.173  0.0538  1.9287  2.0574
 8342SOL     OW26466   2.593   2.587   7.305  0.1686 -0.0037 -0.9233
 8342SOL    HW126467   2.573   2.620   7.217 -2.0433 -1.1199 -0.9172
 8342SOL    HW226468   2.545   2.647   7.363  0.0805 -0.3827 -0.6058
 8343SOL     OW26469   4.667   5.715   4.535  0.1561 -0.2894  0.2920
 8343SOL    HW126470   4.739   5.775   4.514 -0.8161  1.1207  0.7878
 8343SOL    HW226471   4.594   5.746   4.481  0.1949 -2.4638 -1.1494
 8344SOL     OW26472   2.639   6.241  11.343  0.3254  0.1589 -0.3652
 8344SOL    HW126473   2.546   6.248  11.364 -0.3546  0.7910 -3.1820
 8344SOL    HW226474   2.669   6.332  11.339  1.8729 -0.0171  3.1680
 8345SOL     OW26475   6.078   1.978   3.205  0.1041  0.0401 -0.7886
 8345SOL    HW126476   6.081   1.992   3.110  0.4868  0.8802 -0.6642
 8345SOL    HW226477   6.103   2.063   3.242 -1.2819  0.0864  0.0940
 8346SOL     OW26478   5.892   7.681   4.534  0.4268  0.0658  0.4820
 8346SOL    HW126479   5.881   7.589   4.558 -0.1022 -0.1393 -0.5028
 8346SOL    HW226480   5.804   7.710   4.508 -0.0102  1.6207  3.2545
 8347SOL     OW26481   2.746   7.151   5.909 -0.1343 -0.2220  0.2426
 8347SOL    HW126482   2.716   7.200   5.985 -0.4138  0.7243 -0.4566
 8347SOL    HW226483   2.836   7.128   5.929 -0.4315 -0.6177  1.1627
 8348SOL     OW26484   5.935   1.248   4.677  0.7599 -0.8860 -0.0396
 8348SOL    HW126485   6.013   1.272   4.726 -0.4296 -0.2519  1.6300
 8348SOL    HW226486   5.966   1.233   4.587  2.4776  1.1982  0.1516
 8349SOL     OW26487   5.284   1.746   3.738 -0.0382  0.9929 -0.5445
 8349SOL    HW126488   5.227   1.668   3.741 -0.5775  1.3628 -0.9835
 8349SOL    HW226489   5.331   1.737   3.655  1.7485 -0.1244  0.5151
 8350SOL     OW26490   5.045   2.079  10.616  0.5968  0.6182 -0.8089
 8350SOL    HW126491   4.987   2.068  10.541 -0.8837 -0.2658  0.4041
 8350SOL    HW226492   5.048   1.993  10.657  1.4534  1.0591  0.0999
 8351SOL     OW26493   2.408   7.624   1.539  0.2757  0.3664 -0.3080
 8351SOL    HW126494   2.327   7.675   1.538  1.4507  2.3427  0.0057
 8351SOL    HW226495   2.381   7.537   1.567 -2.0142  0.4140 -2.0640
 8352SOL     OW26496   7.561   0.166  12.361  0.3246 -0.1797 -0.3784
 8352SOL    HW126497   7.594   0.153  12.450  0.4381 -1.3677 -0.5791
 8352SOL    HW226498   7.557   0.261  12.351  0.2861 -0.0202  0.9002
 8353SOL     OW26499   4.498   6.556  12.310  0.5526 -0.2769 -0.1147
 8353SOL    HW126500   4.497   6.461  12.300  0.4524 -0.5396  1.8714
 8353SOL    HW226501   4.451   6.571  12.393 -1.7224  1.7065 -1.6253
 8354SOL     OW26502   0.295   3.630  10.259 -0.1556  0.2185 -0.1662
 8354SOL    HW126503   0.323   3.540  10.276  0.5564  0.4638  0.0167
 8354SOL    HW226504   0.331   3.651  10.173 -1.2972 -0.0471 -0.7232
 8355SOL     OW26505   6.324   3.116   9.691  0.2020  0.1852 -0.5267
 8355SOL    HW126506   6.386   3.188   9.702 -0.6929  1.3426 -2.4831
 8355SOL    HW226507   6.240   3.153   9.714 -0.3326 -0.0864 -1.9482
 8356SOL     OW26508   4.336   4.841   7.122 -0.6551 -0.0349 -0.0128
 8356SOL    HW126509   4.339   4.896   7.043 -2.0067  1.6723  1.0527
 8356SOL    HW226510   4.251   4.798   7.118  0.0168 -1.4100 -0.3587
 8357SOL     OW26511   7.710   2.972   6.351  0.6825 -0.1714 -0.3764
 8357SOL    HW126512   7.734   2.899   6.293  0.7597 -0.1504 -0.3716
 8357SOL    HW226513   7.614   2.974   6.349  0.6678 -0.5367 -0.0431
 8358SOL     OW26514   7.515   5.802   4.826 -0.0776  0.0833  0.3920
 8358SOL    HW126515   7.532   5.896   4.817 -2.1065  0.3413 -1.6627
 8358SOL    HW226516   7.423   5.792   4.805  0.2637 -2.4888 -0.2476
 8359SOL     OW26517   5.815   5.966   3.494 -0.2394 -0.2743  0.3337
 8359SOL    HW126518   5.862   5.989   3.414  0.9597 -1.0665  0.7715
 8359SOL    HW226519   5.788   6.050   3.532  0.4652  0.1810 -0.1537
 8360SOL     OW26520   6.491   6.312   4.731 -0.1889 -0.0692 -0.5714
 8360SOL    HW126521   6.494   6.251   4.658 -0.8430 -1.1639  0.2712
 8360SOL    HW226522   6.544   6.271   4.799  0.6558  1.0665 -0.5084
 8361SOL     OW26523   2.766   7.953   2.298  0.7842 -0.0044  0.5899
 8361SOL    HW126524   2.685   7.932   2.344  1.4481 -2.0343  0.9427
 8361SOL    HW226525   2.778   8.046   2.312  0.5343 -0.3640  3.9104
 8362SOL     OW26526   4.529   3.061   4.344  0.5501  0.3342  0.3262
 8362SOL    HW126527   4.525   3.113   4.425  0.1327 -0.8113  1.0617
 8362SOL    HW226528   4.508   3.123   4.275 -1.8315  0.7720  1.3481
 8363SOL     OW26529   3.167   1.718   3.477 -0.1363 -0.3234  0.0799
 8363SOL    HW126530   3.232   1.775   3.435 -0.9704  1.1162  0.6903
 8363SOL    HW226531   3.215   1.638   3.497  1.6639  0.9637  1.1713
 8364SOL     OW26532   4.859   2.026  10.429 -0.3892  0.6422 -0.5220
 8364SOL    HW126533   4.840   1.944  10.382 -0.5993  0.3620  0.0471
 8364SOL    HW226534   4.864   2.092  10.360  0.8483 -0.0257 -1.1092
 8365SOL     OW26535   6.938   7.894   9.087 -0.4957 -0.2696  0.0822
 8365SOL    HW126536   6.937   7.987   9.067 -1.3536  0.4329  3.0186
 8365SOL    HW226537   6.936   7.851   9.001 -0.1322  2.3678 -1.3397
 8366SOL     OW26538   5.264   3.744   5.143 -0.3389 -0.6191 -0.4172
 8366SOL    HW126539   5.258   3.708   5.055 -3.5732  0.5922 -0.8095
 8366SOL    HW226540   5.345   3.707   5.179  0.0947 -2.6202 -3.1880
 8367SOL     OW26541   5.887   5.567   6.491 -0.1229 -0.1102  0.4269
 8367SOL    HW126542   5.969   5.569   6.540 -0.4919 -0.6819  1.0772
 8367SOL    HW226543   5.859   5.476   6.493 -0.7053  0.0519  0.0913
 8368SOL     OW26544   3.604   6.728   3.394  0.3543 -0.1680  0.3845
 8368SOL    HW126545   3.571   6.767   3.475  0.0827 -1.3951  0.8843
 8368SOL    HW226546   3.659   6.796   3.355  0.3813  0.4890  1.5328
 8369SOL     OW26547   7.198   0.529  11.254  0.3731 -0.3961  0.2038
 8369SOL    HW126548   7.264   0.489  11.198  0.9006 -0.8797  1.1440
 8369SOL    HW226549   7.211   0.488  11.340 -0.9798 -0.3068  0.4689
 8370SOL     OW26550   1.150   2.612   5.017  0.2207  0.5901 -0.4827
 8370SOL    HW126551   1.145   2.581   4.927  1.1542  0.4548 -0.4908
 8370SOL    HW226552   1.221   2.563   5.056 -0.1809  0.6441  0.3403
 8371SOL     OW26553   5.077   7.019   1.866  0.4471 -0.1808 -0.4209
 8371SOL    HW126554   5.043   7.010   1.777 -3.5461 -0.4722  0.9393
 8371SOL    HW226555   5.029   6.953   1.916  1.6639  0.8010  2.1908
 8372SOL     OW26556   1.680   4.549   6.099 -0.1577 -0.5050 -1.0376
 8372SOL    HW126557   1.607   4.515   6.151  1.4163 -1.6879  0.5265
 8372SOL    HW226558   1.733   4.471   6.078  2.1393  0.5497  0.3653
 8373SOL     OW26559   0.967   2.183   7.442  0.3635  0.1929  0.1923
 8373SOL    HW126560   0.910   2.234   7.383 -0.3383 -1.5516 -0.7349
 8373SOL    HW226561   0.915   2.105   7.462  2.4057 -1.4977 -0.7212
 8374SOL     OW26562   6.242   7.008   5.495 -0.3195 -0.4547 -0.1923
 8374SOL    HW126563   6.196   6.954   5.431  0.2399 -1.6822  0.4133
 8374SOL    HW226564   6.216   6.972   5.580  1.3098 -0.8161  0.1773
 8375SOL     OW26565   0.427   4.427   9.454 -0.0200 -0.2621 -0.2726
 8375SOL    HW126566   0.370   4.449   9.528 -0.4467 -0.2515 -0.6024
 8375SOL    HW226567   0.399   4.340   9.427 -1.4135  0.6153 -1.8541
 8376SOL     OW26568   5.635   0.353   0.133 -0.3558 -0.1913  0.2137
 8376SOL    HW126569   5.646   0.283   0.198  0.7843  1.9155  2.4747
 8376SOL    HW226570   5.559   0.402   0.164  0.1767  0.8290 -0.0660
 8377SOL     OW26571   4.255   0.227  10.586  0.3480  0.5225  0.8737
 8377SOL    HW126572   4.332   0.196  10.539 -1.1215 -1.2345 -0.4741
 8377SOL    HW226573   4.276   0.211  10.678  1.9158  0.9263  0.6260
 8378SOL     OW26574   7.849   1.683   3.639 -0.2829  0.0235  0.2599
 8378SOL    HW126575   7.925   1.719   3.684  1.0081 -1.1843 -0.8778
 8378SOL    HW226576   7.775   1.707   3.694  0.9424  0.9374  1.5722
 8379SOL     OW26577   7.292   7.365   8.208 -0.3884  0.5794  0.1115
 8379SOL    HW126578   7.265   7.330   8.293 -0.9112  1.8250  0.4868
 8379SOL    HW226579   7.330   7.290   8.162 -2.4050 -0.7273  0.4562
 8380SOL     OW26580   6.330   3.995   4.031 -0.2090 -0.0898  0.4664
 8380SOL    HW126581   6.417   4.028   4.008  0.1909 -0.1924  1.7159
 8380SOL    HW226582   6.276   4.073   4.038 -0.4772 -0.0935 -1.2507
 8381SOL     OW26583   2.223   7.285   4.223 -0.6721  0.0001 -0.3299
 8381SOL    HW126584   2.216   7.326   4.137  0.6316 -0.3564 -0.6373
 8381SOL    HW226585   2.306   7.236   4.219 -0.6683 -0.1461  1.0749
 8382SOL     OW26586   4.958   1.025   5.611 -0.6884  0.4137 -0.1408
 8382SOL    HW126587   4.981   0.948   5.560 -0.6656 -1.0290  1.9485
 8382SOL    HW226588   4.863   1.021   5.621 -0.8002  1.1726 -0.7667
 8383SOL     OW26589   5.850   0.564   6.485 -0.3274  0.2833  0.5179
 8383SOL    HW126590   5.903   0.512   6.425 -2.2830 -0.4553 -0.6473
 8383SOL    HW226591   5.885   0.653   6.477  0.3711 -0.0757 -0.6415
 8384SOL     OW26592   1.930   4.042   2.447  0.0286  0.1716 -0.1233
 8384SOL    HW126593   1.868   4.105   2.484  0.5300 -0.0319  1.0882
 8384SOL    HW226594   1.889   4.014   2.365 -1.2483  0.4161  0.4021
 8385SOL     OW26595   0.349   7.619   8.937  0.3858 -0.4237  0.3376
 8385SOL    HW126596   0.307   7.693   8.893 -1.8958 -1.1625  1.1539
 8385SOL    HW226597   0.364   7.651   9.027 -0.1919 -0.8075  0.5696
 8386SOL     OW26598   5.841   5.246   2.932  0.4562 -0.0136  0.8099
 8386SOL    HW126599   5.840   5.244   3.027  0.1305  1.2779  0.8518
 8386SOL    HW226600   5.754   5.277   2.907  1.2573  1.9845  0.2107
 8387SOL     OW26601   1.179   2.713   1.267 -0.1792  0.4088 -0.2563
 8387SOL    HW126602   1.118   2.782   1.242 -2.7076 -0.9722  1.6176
 8387SOL    HW226603   1.124   2.635   1.278  2.2756 -1.4961 -0.5643
 8388SOL     OW26604   3.367   4.054   5.895 -0.3915  0.0130  0.1209
 8388SOL    HW126605   3.308   4.034   5.968 -2.8109 -0.6365 -1.8487
 8388SOL    HW226606   3.417   3.974   5.882 -2.6791 -1.3074 -1.2301
 8389SOL     OW26607   2.620   3.974   0.335 -0.1212  0.5493  0.2081
 8389SOL    HW126608   2.567   3.899   0.308 -0.2306  0.4838  0.6103
 8389SOL    HW226609   2.678   3.990   0.260 -0.6804  0.6013 -0.2230
 8390SOL     OW26610   7.383   1.901   3.123  0.0548  0.2186 -0.3886
 8390SOL    HW126611   7.330   1.844   3.179 -0.6822  1.6777  0.4572
 8390SOL    HW226612   7.442   1.946   3.184  1.1855 -0.2014 -1.1375
 8391SOL     OW26613   3.755   0.320   4.109  0.0538 -0.2062 -0.1644
 8391SOL    HW126614   3.845   0.349   4.095 -0.0984  0.8428  0.8558
 8391SOL    HW226615   3.761   0.225   4.117  0.6915 -0.4458 -2.7907
 8392SOL     OW26616   3.476   6.240   4.214 -0.9557  0.1366 -0.6642
 8392SOL    HW126617   3.491   6.319   4.265 -0.5114  0.5491 -1.4292
 8392SOL    HW226618   3.530   6.250   4.136  0.8798 -1.9159  0.2358
 8393SOL     OW26619   6.552   6.197  12.146 -0.0735  0.2675 -0.2004
 8393SOL    HW126620   6.610   6.120  12.143 -0.5377 -0.0988  0.1044
 8393SOL    HW226621   6.489   6.183  12.076 -1.9253 -1.0825  1.5858
 8394SOL     OW26622   5.670   0.452   6.652  0.0628 -0.4656  0.4970
 8394SOL    HW126623   5.717   0.468   6.733  0.3608  1.8067 -0.0777
 8394SOL    HW226624   5.725   0.489   6.583 -0.9204 -0.9037 -0.5728
 8395SOL     OW26625   6.771   5.758   9.747 -0.2576  0.5353  0.3153
 8395SOL    HW126626   6.697   5.793   9.698  1.0799  1.2585 -1.2921
 8395SOL    HW226627   6.781   5.669   9.713 -1.4531 -0.2139  1.8292
 8396SOL     OW26628   7.789   5.402   8.888  0.2666 -0.2606 -0.0908
 8396SOL    HW126629   7.741   5.332   8.844  0.2196 -0.0251 -0.4191
 8396SOL    HW226630   7.880   5.389   8.862  0.1651  0.1912 -0.6846
 8397SOL     OW26631   6.640   6.889   2.297 -0.4478  0.2441  0.2582
 8397SOL    HW126632   6.735   6.890   2.311 -0.4011 -1.3710  0.2709
 8397SOL    HW226633   6.620   6.798   2.276 -2.0237  0.5228  0.4215
 8398SOL     OW26634   0.578   3.026   8.923  0.2027  0.3187  0.1429
 8398SOL    HW126635   0.553   3.015   8.832  1.1986 -0.1676 -0.0796
 8398SOL    HW226636   0.589   3.121   8.934 -0.2897  0.4120 -0.1312
 8399SOL     OW26637   3.291   3.176  10.023 -0.3403  0.2651 -0.4220
 8399SOL    HW126638   3.273   3.107  10.087 -0.8605 -0.0854 -0.9374
 8399SOL    HW226639   3.328   3.248  10.075 -1.2838  0.2067  0.3655
 8400SOL     OW26640   5.756   7.440   8.546 -0.0240  0.0325  0.4634
 8400SOL    HW126641   5.704   7.516   8.572 -0.3433  0.0016 -0.0726
 8400SOL    HW226642   5.766   7.389   8.626  1.9230  1.6341  1.3371
 8401SOL     OW26643   1.306   1.812   8.169 -0.5573 -0.5639 -0.1706
 8401SOL    HW126644   1.329   1.903   8.151  0.5380 -1.0652 -1.4335
 8401SOL    HW226645   1.303   1.770   8.083 -0.1355 -1.9366  0.4610
 8402SOL     OW26646   6.457   1.085   2.253  0.4421 -0.3019 -0.1070
 8402SOL    HW126647   6.530   1.063   2.310  0.1676 -0.7614  0.0720
 8402SOL    HW226648   6.410   1.154   2.300 -1.9033 -3.1319  2.0620
 8403SOL     OW26649   1.923   6.506   8.954  0.4167  0.0906  0.0977
 8403SOL    HW126650   2.010   6.528   8.922  0.6933 -0.1144  0.7014
 8403SOL    HW226651   1.936   6.430   9.011 -0.2017 -0.1497 -0.0716
 8404SOL     OW26652   6.192   0.164   3.599 -0.0879  0.5542  0.0485
 8404SOL    HW126653   6.246   0.237   3.630  0.4860 -0.3865  1.3503
 8404SOL    HW226654   6.209   0.161   3.505  0.3514  1.7044  0.0716
 8405SOL     OW26655   6.074   3.151   5.512 -0.4469  0.0155 -0.2985
 8405SOL    HW126656   6.011   3.151   5.583  0.5407  1.2376  0.6274
 8405SOL    HW226657   6.111   3.240   5.513  0.3850 -0.2892 -1.6076
 8406SOL     OW26658   3.111   3.662   4.969 -0.0818 -0.6612  0.3299
 8406SOL    HW126659   3.028   3.655   5.016 -0.3909 -1.9928 -0.3895
 8406SOL    HW226660   3.097   3.734   4.908 -1.4811 -2.1694 -1.2368
 8407SOL     OW26661   0.015   2.176   3.321  0.1209  0.0914  0.3060
 8407SOL    HW126662  -0.072   2.175   3.363 -0.1044  0.8044 -0.1413
 8407SOL    HW226663   0.045   2.086   3.329 -0.2222  0.0570  1.3829
 8408SOL     OW26664   3.269   2.777  10.719 -0.2183 -0.1356 -0.3127
 8408SOL    HW126665   3.312   2.829  10.651 -1.0152 -0.2890 -0.9437
 8408SOL    HW226666   3.256   2.691  10.680 -0.9282 -0.1483 -0.0681
 8409SOL     OW26667   1.853   5.398   9.722  0.3410  0.1699  1.0734
 8409SOL    HW126668   1.796   5.465   9.762 -0.2169 -0.4025  1.2551
 8409SOL    HW226669   1.859   5.330   9.789  0.6616 -0.0963  0.7696
 8410SOL     OW26670   0.075   6.452   9.078  0.0132  0.4718 -0.3931
 8410SOL    HW126671   0.002   6.393   9.098  1.0993 -0.5032  0.9382
 8410SOL    HW226672   0.042   6.539   9.101 -1.1928  0.2472 -1.1695
 8411SOL     OW26673   6.025   7.624  11.085  0.6506  0.2125 -0.3220
 8411SOL    HW126674   6.023   7.666  10.999  0.5081 -0.2115 -0.5265
 8411SOL    HW226675   6.107   7.654  11.124  0.3792  0.9813 -0.3108
 8412SOL     OW26676   0.735   7.424   2.197  0.1657  0.0825  0.8083
 8412SOL    HW126677   0.639   7.431   2.196  0.2033  0.5779  0.3897
 8412SOL    HW226678   0.762   7.478   2.271 -0.0167 -2.1845  2.6626
 8413SOL     OW26679   0.063   1.519  10.635  0.4237  0.1115  0.3469
 8413SOL    HW126680   0.015   1.442  10.666  0.4473 -0.1480 -0.2490
 8413SOL    HW226681   0.155   1.500  10.655  0.3298  0.4352  1.1250
 8414SOL     OW26682   3.207   6.188   5.883  0.1523 -0.0879  0.5618
 8414SOL    HW126683   3.216   6.198   5.788 -1.2108  0.8127  0.4898
 8414SOL    HW226684   3.235   6.098   5.901 -0.2236 -0.4933 -0.7917
 8415SOL     OW26685   6.887   7.636   1.345 -0.6170 -0.1256  0.7517
 8415SOL    HW126686   6.923   7.724   1.336 -1.5158  0.1941  0.1084
 8415SOL    HW226687   6.960   7.578   1.325 -0.2211  0.4919  0.3537
 8416SOL     OW26688   5.991   1.000   2.229 -0.2901 -0.4315  0.5900
 8416SOL    HW126689   5.917   0.950   2.262 -1.7960  0.8266 -0.7110
 8416SOL    HW226690   5.965   1.028   2.141  0.8325  1.8112  0.8855
 8417SOL     OW26691   4.478   0.464   5.801  0.0425 -0.3103 -0.2154
 8417SOL    HW126692   4.413   0.395   5.787 -2.5062  1.8177  0.4587
 8417SOL    HW226693   4.518   0.476   5.715 -1.1077 -1.0603 -0.8929
 8418SOL     OW26694   2.306   6.176   4.543 -0.4969 -0.8555  0.6022
 8418SOL    HW126695   2.315   6.154   4.636  0.7529 -2.9253  0.0474
 8418SOL    HW226696   2.278   6.268   4.543  0.5345 -0.4683  2.9994
 8419SOL     OW26697   3.408   6.158  10.389 -0.3730  0.7248  0.5772
 8419SOL    HW126698   3.441   6.185  10.304 -1.0569 -0.4682 -0.0944
 8419SOL    HW226699   3.446   6.220  10.451  0.0079  1.7028 -0.6124
 8420SOL     OW26700   3.043   7.954   3.525  0.0411  0.2151  0.2781
 8420SOL    HW126701   3.089   7.873   3.507 -0.5979  0.1394 -1.1174
 8420SOL    HW226702   2.953   7.939   3.495  0.1296  1.7275 -0.8798
 8421SOL     OW26703   5.219   7.470   7.323 -0.3053 -0.1877 -0.0835
 8421SOL    HW126704   5.184   7.474   7.234 -0.1672 -0.8746 -0.1793
 8421SOL    HW226705   5.175   7.541   7.370  0.1002  0.5841 -0.8651
 8422SOL     OW26706   7.352   1.104   0.830 -0.2124  0.1535 -0.2433
 8422SOL    HW126707   7.346   1.025   0.883  1.3080 -0.2238 -0.5902
 8422SOL    HW226708   7.434   1.145   0.857  0.2060  0.3575 -1.7159
 8423SOL     OW26709   2.879   2.832   0.483  0.5969  0.4673  0.6269
 8423SOL    HW126710   2.965   2.790   0.472  0.4235 -0.0064  1.0677
 8423SOL    HW226711   2.873   2.850   0.577 -0.3976 -0.8213  0.8343
 8424SOL     OW26712   0.999   6.368   8.449  0.1130  0.3164  0.0093
 8424SOL    HW126713   0.924   6.309   8.437 -1.2627  2.2690 -1.9104
 8424SOL    HW226714   1.003   6.382   8.543 -1.7006 -0.1873  0.2135
 8425SOL     OW26715   5.755   5.837   2.591 -0.3703  0.1967 -0.2710
 8425SOL    HW126716   5.739   5.927   2.565 -1.1845 -0.1499 -1.0176
 8425SOL    HW226717   5.767   5.790   2.508  0.9053 -0.2378  0.1283
 8426SOL     OW26718   5.261   2.207  12.138 -0.2392 -0.2104 -0.1408
 8426SOL    HW126719   5.345   2.223  12.181 -0.1606 -4.0506  1.4480
 8426SOL    HW226720   5.202   2.273  12.175  1.6194  1.5180 -0.0757
 8427SOL     OW26721   7.111   3.008   2.297  0.1534  0.9048  0.2257
 8427SOL    HW126722   7.046   2.946   2.330 -0.3427  0.9215 -0.6722
 8427SOL    HW226723   7.135   2.973   2.211  0.5527  1.4566  0.1066
 8428SOL     OW26724   5.008   5.707   0.720 -0.1218  0.4129  0.2666
 8428SOL    HW126725   4.941   5.641   0.704  0.8031 -0.5247  0.0953
 8428SOL    HW226726   4.982   5.749   0.801  0.5322 -1.8918  1.7727
 8429SOL     OW26727   2.287   6.787  12.009 -0.0805 -0.6635  0.1726
 8429SOL    HW126728   2.312   6.877  11.988 -1.0906 -0.3755  0.1374
 8429SOL    HW226729   2.196   6.780  11.980  0.2043 -1.9300 -0.5087
 8430SOL     OW26730   7.778   1.134  12.273 -0.1592 -0.0026 -0.5491
 8430SOL    HW126731   7.722   1.103  12.345 -1.4963  1.4240 -0.9187
 8430SOL    HW226732   7.721   1.192  12.223  2.1922  3.1605  0.1609
 8431SOL     OW26733   6.685   1.066   6.687  0.7297 -0.2048  0.3532
 8431SOL    HW126734   6.752   0.997   6.692  2.9786  1.6633 -1.6421
 8431SOL    HW226735   6.728   1.144   6.723 -1.7913  0.2799  2.6680
 8432SOL     OW26736   1.933   4.280   4.196  0.4210  0.3015 -0.2043
 8432SOL    HW126737   1.978   4.364   4.205 -0.4439  0.6618  0.9921
 8432SOL    HW226738   1.852   4.300   4.150  0.7111 -0.0729 -0.8928
 8433SOL     OW26739   6.959   5.191   9.169 -0.5831 -0.7750 -0.8324
 8433SOL    HW126740   6.900   5.172   9.096  0.0896 -0.7307 -1.3930
 8433SOL    HW226741   7.047   5.184   9.132 -0.2466  1.0597 -0.4833
 8434SOL     OW26742   7.404   3.811   4.274  0.1123  0.3085  0.2285
 8434SOL    HW126743   7.422   3.725   4.235 -1.0756  0.5937 -1.0386
 8434SOL    HW226744   7.368   3.792   4.360 -0.1113 -0.4679 -0.0311
 8435SOL     OW26745   0.732   1.605   3.039  0.0244  0.1128 -0.1182
 8435SOL    HW126746   0.746   1.635   2.949  0.3853 -1.0294 -0.4732
 8435SOL    HW226747   0.812   1.631   3.086  1.0469 -1.6024 -0.8060
 8436SOL     OW26748   2.205   5.014   7.607  0.3624  0.3082 -0.2260
 8436SOL    HW126749   2.135   4.990   7.546 -0.1037  0.3208  0.2921
 8436SOL    HW226750   2.201   4.946   7.675  1.5390 -0.2900 -0.7179
 8437SOL     OW26751   0.796   0.381   4.624  0.0825 -0.0970 -0.0670
 8437SOL    HW126752   0.788   0.469   4.663 -3.1420 -0.1848 -0.2060
 8437SOL    HW226753   0.754   0.324   4.688 -1.4516 -0.8897 -1.7138
 8438SOL     OW26754   2.402   3.861  11.232 -0.5135  0.3138 -0.4701
 8438SOL    HW126755   2.458   3.892  11.304 -0.4406  1.8408 -1.1442
 8438SOL    HW226756   2.313   3.887  11.259 -0.5290  0.5584 -0.7542
 8439SOL     OW26757   3.439   1.936   1.748  0.0329  0.9816  0.0399
 8439SOL    HW126758   3.392   1.869   1.698  1.2454 -0.0036  0.1494
 8439SOL    HW226759   3.390   2.016   1.734 -0.3972  0.4609 -1.6606
 8440SOL     OW26760   2.892   6.558  10.533  0.1589 -0.0968 -0.6845
 8440SOL    HW126761   2.883   6.649  10.504  0.9926  0.8278  1.6373
 8440SOL    HW226762   2.986   6.540  10.524  0.3506  0.0404  0.7616
 8441SOL     OW26763   0.147   0.562   2.371  0.1779  0.6411  0.3275
 8441SOL    HW126764   0.215   0.587   2.309 -0.7511  0.0046 -0.9885
 8441SOL    HW226765   0.172   0.475   2.402  1.1271  1.3386  1.5822
 8442SOL     OW26766   4.467   7.401   0.512  0.0700 -0.1803  0.0277
 8442SOL    HW126767   4.441   7.477   0.459  1.0535 -1.9465 -3.3096
 8442SOL    HW226768   4.561   7.412   0.525  0.0025 -0.2430  0.5886
 8443SOL     OW26769   5.976   2.213   5.399 -0.2200  0.3309 -0.2193
 8443SOL    HW126770   5.988   2.143   5.463 -1.4274 -1.5860 -1.9751
 8443SOL    HW226771   5.945   2.287   5.451 -1.4110 -1.2088  1.4130
 8444SOL     OW26772   0.201   2.748   4.534  0.2887 -0.0525 -0.2258
 8444SOL    HW126773   0.127   2.756   4.473  1.3635 -0.7089 -1.6687
 8444SOL    HW226774   0.172   2.681   4.597 -0.7118  0.4045 -0.1737
 8445SOL     OW26775   4.953   5.624   3.822 -0.9713 -0.1358 -0.0253
 8445SOL    HW126776   4.942   5.713   3.858 -0.1877 -0.0025 -0.0985
 8445SOL    HW226777   4.908   5.627   3.738  0.7906  0.8252 -0.9796
 8446SOL     OW26778   5.184   6.162   0.322 -0.9854 -0.2684 -0.3326
 8446SOL    HW126779   5.118   6.229   0.344  1.3361  2.5268 -1.2538
 8446SOL    HW226780   5.201   6.176   0.228 -0.8201 -2.6356 -0.7129
 8447SOL     OW26781   7.635   4.882   2.112  0.2971  0.0353 -0.0399
 8447SOL    HW126782   7.564   4.851   2.168  0.0760 -0.0084 -0.3402
 8447SOL    HW226783   7.689   4.804   2.096 -0.4068 -0.2798 -1.0161
 8448SOL     OW26784   0.757   0.355   2.395  0.0874 -0.0767 -0.1665
 8448SOL    HW126785   0.755   0.438   2.346  2.1990 -1.1156 -2.1950
 8448SOL    HW226786   0.667   0.323   2.391 -0.2264  0.8647 -1.6269
 8449SOL     OW26787   0.535   4.292   6.719  0.2763 -0.0559 -0.0482
 8449SOL    HW126788   0.596   4.254   6.783  1.6016  1.5046 -0.3159
 8449SOL    HW226789   0.573   4.378   6.697 -1.8280  0.8190 -0.5321
 8450SOL     OW26790   0.343   1.680   5.336 -0.1928 -0.7214 -0.1221
 8450SOL    HW126791   0.306   1.768   5.346 -1.8850 -1.4887  0.7647
 8450SOL    HW226792   0.356   1.650   5.426  0.1384 -1.4906 -0.4189
 8451SOL     OW26793   7.462   3.125  10.177 -0.1724  0.5669 -0.3652
 8451SOL    HW126794   7.392   3.189  10.161 -0.4570  0.2745 -0.2975
 8451SOL    HW226795   7.417   3.050  10.215 -0.1196 -0.4153 -2.1455
 8452SOL     OW26796   6.742   6.911   1.515  0.3132  0.4081  1.0208
 8452SOL    HW126797   6.805   6.982   1.504  2.0849 -1.0589  1.2632
 8452SOL    HW226798   6.714   6.890   1.426 -2.0311  2.8237  1.0258
 8453SOL     OW26799   1.671   0.097   6.120 -0.5023  0.5527  0.7502
 8453SOL    HW126800   1.751   0.134   6.084 -1.6788 -0.4662 -3.3808
 8453SOL    HW226801   1.604   0.164   6.104 -1.3312 -0.5065 -0.4072
 8454SOL     OW26802   1.901   6.491   7.646 -0.1962 -0.3406  0.3625
 8454SOL    HW126803   1.955   6.495   7.726  0.5746  1.4495 -0.1946
 8454SOL    HW226804   1.824   6.543   7.667 -0.4761 -0.7083  0.2619
 8455SOL     OW26805   2.501   7.118   2.516 -0.6875 -0.5366 -0.1981
 8455SOL    HW126806   2.580   7.158   2.552 -1.6055  0.8841  0.3455
 8455SOL    HW226807   2.486   7.041   2.571  0.0780 -0.5983 -0.0585
 8456SOL     OW26808   7.852   4.917   2.595 -0.2544  0.3502 -0.0977
 8456SOL    HW126809   7.879   4.994   2.546 -0.5327  0.9848  0.7269
 8456SOL    HW226810   7.929   4.860   2.594  0.5681  1.3939  0.7614
 8457SOL     OW26811   5.440   5.542  10.812  0.5145  0.0135  0.0908
 8457SOL    HW126812   5.422   5.564  10.720 -1.1530 -2.0918 -0.1626
 8457SOL    HW226813   5.523   5.495  10.809 -0.3759 -1.5867 -0.6405
 8458SOL     OW26814   0.318   2.609   1.412  0.1180 -0.3710  0.2844
 8458SOL    HW126815   0.407   2.618   1.445  0.1858 -0.7159  0.1919
 8458SOL    HW226816   0.321   2.651   1.326  0.0539  0.1112  0.5136
 8459SOL     OW26817   6.178   1.065   5.695  0.1998  0.0227 -0.2050
 8459SOL    HW126818   6.086   1.070   5.669  0.9795 -0.0618 -3.3878
 8459SOL    HW226819   6.197   0.971   5.701 -0.1082  0.0410  1.3737
 8460SOL     OW26820   1.071   7.651   1.809  0.4420  0.4430  0.2836
 8460SOL    HW126821   1.156   7.641   1.765  2.1872  3.1233  2.6746
 8460SOL    HW226822   1.087   7.622   1.899 -1.8781 -1.0962  0.2785
 8461SOL     OW26823   2.908   4.603   0.700  0.1550 -0.3800  0.3859
 8461SOL    HW126824   2.930   4.517   0.662 -2.0416 -0.5711 -0.5984
 8461SOL    HW226825   2.886   4.658   0.624  2.7084  1.4978  0.8956
 8462SOL     OW26826   0.613   7.939  10.547  0.1728  0.3576  0.2485
 8462SOL    HW126827   0.667   7.885  10.605  1.8234 -1.9028 -3.0538
 8462SOL    HW226828   0.659   8.023  10.543  0.8860  0.0235  0.9907
 8463SOL     OW26829   7.511   2.300   2.093  0.5328 -0.1784  0.2614
 8463SOL    HW126830   7.598   2.282   2.128  0.3435  0.5829  1.1806
 8463SOL    HW226831   7.526   2.320   2.000  1.0578 -2.1750 -0.1195
 8464SOL     OW26832   1.000   1.653   2.541 -0.5253  0.5044  0.1030
 8464SOL    HW126833   1.013   1.730   2.596  0.2043  0.8145 -0.4840
 8464SOL    HW226834   0.985   1.689   2.453  0.9953 -0.0260 -0.4066
 8465SOL     OW26835   2.665   6.343   9.041  0.2501 -0.1998 -0.6090
 8465SOL    HW126836   2.596   6.332   9.106 -0.5452 -2.8168 -1.7679
 8465SOL    HW226837   2.746   6.345   9.092 -0.5042  3.5757  0.8468
 8466SOL     OW26838   7.852   2.828   2.288 -0.3790 -0.3570  0.3180
 8466SOL    HW126839   7.873   2.759   2.351  0.3018  0.5918  1.1872
 8466SOL    HW226840   7.760   2.849   2.305 -0.8341 -1.5905 -0.5245
 8467SOL     OW26841   5.311   0.943   1.143 -0.0533  0.7135  1.0836
 8467SOL    HW126842   5.282   1.022   1.188 -0.7598  0.7674  0.5598
 8467SOL    HW226843   5.321   0.971   1.051  1.8176  0.7293  1.2534
 8468SOL     OW26844   6.149   7.045   8.094 -0.1450 -0.2603 -0.1613
 8468SOL    HW126845   6.239   7.021   8.075  0.5406  2.3626 -0.6966
 8468SOL    HW226846   6.099   7.012   8.019  0.7171  0.0007 -0.8743
 8469SOL     OW26847   4.145   5.757   7.207  0.0462  0.5800 -0.2264
 8469SOL    HW126848   4.166   5.832   7.263 -0.0875 -0.0978  0.7451
 8469SOL    HW226849   4.230   5.729   7.173  0.0383  1.5027 -1.0352
 8470SOL     OW26850   7.187   0.548   3.570  0.0925 -0.3735 -1.1319
 8470SOL    HW126851   7.240   0.561   3.492  0.6468  0.2287 -0.6718
 8470SOL    HW226852   7.098   0.532   3.537  0.2035  0.4663 -1.8637
 8471SOL     OW26853   3.482   1.610   6.725  0.3532  0.2085  0.0266
 8471SOL    HW126854   3.573   1.629   6.751 -0.4073  2.5097  1.3136
 8471SOL    HW226855   3.467   1.668   6.650 -0.4187  0.8339  0.6496
 8472SOL     OW26856   2.939   4.930  12.133  0.3022 -0.8836  0.5445
 8472SOL    HW126857   2.993   4.972  12.066  0.9138 -1.5290  0.6198
 8472SOL    HW226858   2.863   4.899  12.085 -0.4755  0.8289  0.5925
 8473SOL     OW26859   3.884   2.332  11.587 -0.1166 -0.2609 -0.4943
 8473SOL    HW126860   3.920   2.415  11.555 -1.0353  0.1852 -0.4135
 8473SOL    HW226861   3.957   2.290  11.632 -0.0064  1.2282  0.8240
 8474SOL     OW26862   0.411   6.085   0.092 -0.1927 -0.2543 -0.5981
 8474SOL    HW126863   0.484   6.135   0.054  0.8720  0.4676  2.1371
 8474SOL    HW226864   0.339   6.148   0.095 -0.1058 -0.1397 -0.8307
 8475SOL     OW26865   7.517   4.286   2.111  0.2819  0.4651 -0.6439
 8475SOL    HW126866   7.479   4.310   2.026 -0.0882 -0.0371 -0.6265
 8475SOL    HW226867   7.611   4.299   2.100  0.4476 -1.3005 -1.7202
 8476SOL     OW26868   7.469   2.423   3.212  0.0561  0.2031  0.4695
 8476SOL    HW126869   7.552   2.405   3.257  0.0528 -0.8114  0.0978
 8476SOL    HW226870   7.477   2.378   3.128 -0.9335 -0.0641  0.5041
 8477SOL     OW26871   5.550   5.636   0.243 -0.6150 -0.2796  0.2968
 8477SOL    HW126872   5.549   5.593   0.328  1.0715 -0.8134  0.0952
 8477SOL    HW226873   5.514   5.723   0.259 -3.1587 -1.3751  0.9059
 8478SOL     OW26874   5.213   3.138   1.531  0.0767  0.6432 -0.2413
 8478SOL    HW126875   5.129   3.177   1.505 -0.1136  0.2343 -0.2371
 8478SOL    HW226876   5.209   3.048   1.500 -0.1647  0.1352  1.1741
 8479SOL     OW26877   3.784   4.424   6.240  0.0667 -0.3630 -0.5098
 8479SOL    HW126878   3.812   4.390   6.325 -0.5982 -0.4517 -0.3233
 8479SOL    HW226879   3.732   4.502   6.261 -0.0526 -0.3529 -0.8398
 8480SOL     OW26880   3.243   6.494   2.245 -0.4891 -0.2444  0.0957
 8480SOL    HW126881   3.311   6.558   2.263  0.0236 -1.4511  3.3018
 8480SOL    HW226882   3.289   6.418   2.209  0.7643 -2.2693  5.0601
 8481SOL     OW26883   5.874   6.650   6.274 -0.2331 -0.0870 -0.0357
 8481SOL    HW126884   5.896   6.622   6.363  0.5867  0.0765 -0.1817
 8481SOL    HW226885   5.878   6.745   6.277  3.4742 -0.0685 -1.0986
 8482SOL     OW26886   7.110   1.078   3.105  0.3985  0.4898 -0.6691
 8482SOL    HW126887   7.076   1.025   3.177 -1.7575 -0.7321 -2.4731
 8482SOL    HW226888   7.076   1.166   3.122  0.7847  0.4642  0.3202
 8483SOL     OW26889   6.364   1.139  11.399  0.5014 -0.1151 -0.2493
 8483SOL    HW126890   6.345   1.172  11.487 -1.1376 -0.3555 -0.4845
 8483SOL    HW226891   6.451   1.174  11.379 -0.1543  2.0971  0.4501
 8484SOL     OW26892   7.685   6.940   3.020  0.2600 -0.2025 -0.4302
 8484SOL    HW126893   7.605   6.893   2.996 -0.3211  0.1472  0.7207
 8484SOL    HW226894   7.686   7.018   2.965 -0.3060 -0.1065 -0.3034
 8485SOL     OW26895   3.136   3.285   6.940 -0.1678 -0.1066  0.1742
 8485SOL    HW126896   3.064   3.311   6.883 -0.0816 -0.1179  0.0618
 8485SOL    HW226897   3.097   3.218   6.997  0.2571 -1.5853 -1.1943
 8486SOL     OW26898   4.518   7.938   3.319 -0.5371  0.0424 -0.7184
 8486SOL    HW126899   4.431   7.938   3.358  0.2396  3.3030  1.4585
 8486SOL    HW226900   4.515   8.006   3.252  0.1633 -0.2649 -1.0773
 8487SOL     OW26901   0.613   4.455   0.433 -0.2730  0.8348  0.0565
 8487SOL    HW126902   0.636   4.414   0.350  2.4592  1.5280  0.3747
 8487SOL    HW226903   0.581   4.542   0.408  0.5944  1.0653 -0.2910
 8488SOL     OW26904   6.935   6.216  12.207  0.0903 -0.4030 -0.2754
 8488SOL    HW126905   6.913   6.190  12.117 -0.1008 -2.1288  0.2361
 8488SOL    HW226906   6.955   6.134  12.251  1.2111  0.5135  1.0046
 8489SOL     OW26907   6.578   6.089   1.548 -0.4156 -0.1288 -0.3217
 8489SOL    HW126908   6.484   6.101   1.566 -0.1786 -0.9418  1.7939
 8489SOL    HW226909   6.622   6.144   1.613  0.5554 -0.9645 -0.2468
 8490SOL     OW26910   2.742   7.345   6.887  0.2186  0.1100  0.1800
 8490SOL    HW126911   2.680   7.273   6.900 -0.2062  0.1212 -1.6286
 8490SOL    HW226912   2.703   7.399   6.819  2.8762 -0.7379 -2.2263
 8491SOL     OW26913   1.428   1.569   9.038  0.0612 -0.2265  0.4384
 8491SOL    HW126914   1.513   1.599   9.006  0.6198 -0.7597  1.3477
 8491SOL    HW226915   1.424   1.477   9.012  0.6455 -0.7449  2.0464
 8492SOL     OW26916   0.930   0.491   8.947 -0.1993  0.7357 -0.3632
 8492SOL    HW126917   0.846   0.481   8.902 -0.8559  0.6502  0.8450
 8492SOL    HW226918   0.952   0.584   8.936 -0.8771  0.9501  0.0144
 8493SOL     OW26919   2.419   4.199   5.070  0.3393 -0.0546 -0.6269
 8493SOL    HW126920   2.380   4.173   5.154  0.1265 -0.3907 -0.8265
 8493SOL    HW226921   2.377   4.283   5.050  1.3230  0.6675  0.2171
 8494SOL     OW26922   0.710   7.603   0.178  0.3059  0.2196  0.4700
 8494SOL    HW126923   0.776   7.536   0.193  0.2634  0.3357  1.2243
 8494SOL    HW226924   0.629   7.554   0.166  0.4936  0.0842 -0.2933
 8495SOL     OW26925   5.641   6.254   2.698  0.7447 -0.3866  0.0360
 8495SOL    HW126926   5.716   6.313   2.691 -0.8934  2.3374  3.0370
 8495SOL    HW226927   5.670   6.187   2.761  0.8590  0.4111  0.8601
 8496SOL     OW26928   0.173   4.260   8.667 -0.0619  0.0978 -0.9733
 8496SOL    HW126929   0.147   4.314   8.742 -1.8745 -0.2959 -1.2802
 8496SOL    HW226930   0.262   4.288   8.648 -0.6330  2.3956 -0.5895
 8497SOL     OW26931   6.426   0.322   1.819  0.0482  0.6571  0.3336
 8497SOL    HW126932   6.349   0.295   1.769 -0.9871  3.3340  0.3250
 8497SOL    HW226933   6.491   0.345   1.753  0.1455  0.3066  0.3056
 8498SOL     OW26934   3.496   0.040   1.360 -0.1960 -0.2090 -0.1883
 8498SOL    HW126935   3.499   0.136   1.360 -1.1973 -0.1689 -0.3490
 8498SOL    HW226936   3.554   0.014   1.431  0.8816  0.4773 -0.7839
 8499SOL     OW26937   7.891   1.430   6.561  0.1949  0.2239  0.3558
 8499SOL    HW126938   7.899   1.345   6.605  1.3105  0.2241  0.1927
 8499SOL    HW226939   7.877   1.408   6.469 -0.2885  0.2162  0.4330
 8500SOL     OW26940   7.545   7.860   4.039 -0.3122 -0.0829 -0.1341
 8500SOL    HW126941   7.466   7.911   4.059 -0.6620 -0.3522 -0.8079
 8500SOL    HW226942   7.588   7.910   3.969 -0.9480 -0.9960 -1.1936
 8501SOL     OW26943   0.543   5.328   6.212  0.1502 -0.1188 -0.1010
 8501SOL    HW126944   0.611   5.269   6.245 -1.7763 -0.9672  2.7715
 8501SOL    HW226945   0.534   5.394   6.281 -0.0620  1.6447 -1.7369
 8502SOL     OW26946   2.965   0.656   1.363 -0.0020  0.3677 -0.1097
 8502SOL    HW126947   3.060   0.646   1.368  0.1094  1.3405 -0.1186
 8502SOL    HW226948   2.936   0.583   1.308  0.6438 -0.4007  0.5456
 8503SOL     OW26949   2.040   4.635  10.276 -0.4820 -0.4210  0.3393
 8503SOL    HW126950   2.070   4.715  10.232 -0.7993 -1.5485 -2.1334
 8503SOL    HW226951   2.121   4.589  10.298 -0.2893 -0.5554 -0.5803
 8504SOL     OW26952   4.532   0.100  10.596 -0.6692  0.0102  0.2273
 8504SOL    HW126953   4.599   0.169  10.603 -0.2756 -0.3970  0.5071
 8504SOL    HW226954   4.537   0.054  10.680 -0.0172 -1.1898 -0.4542
 8505SOL     OW26955   7.518   1.663   0.457 -0.1233 -0.4197  0.3192
 8505SOL    HW126956   7.544   1.624   0.373  1.5613 -1.7883  1.4146
 8505SOL    HW226957   7.557   1.606   0.523  0.4446  1.8637  2.0513
 8506SOL     OW26958   7.638   3.756   3.938  0.3050  0.2655  0.2839
 8506SOL    HW126959   7.677   3.669   3.923  0.9015  0.9550 -3.0616
 8506SOL    HW226960   7.547   3.746   3.912  0.2725  0.5493  0.2890
 8507SOL     OW26961   7.625   6.437  10.478  0.4499 -0.0827 -0.5589
 8507SOL    HW126962   7.621   6.436  10.573  0.6835 -0.9110 -0.5521
 8507SOL    HW226963   7.715   6.413  10.457  0.6457  0.9676 -0.9864
 8508SOL     OW26964   0.215   4.616   4.143  0.1946 -0.2158 -0.3793
 8508SOL    HW126965   0.250   4.577   4.223 -1.7106 -0.9010  0.1705
 8508SOL    HW226966   0.179   4.542   4.094  1.3960  0.1826 -1.9469
 8509SOL     OW26967   7.507   5.884  11.440  0.1100  0.4209  0.0310
 8509SOL    HW126968   7.565   5.928  11.502  1.8736 -1.1043 -0.4381
 8509SOL    HW226969   7.511   5.938  11.361  0.8057  0.4211  0.0562
 8510SOL     OW26970   5.786   1.553  11.414  0.4136 -0.2440 -0.3867
 8510SOL    HW126971   5.757   1.510  11.333 -0.0417  0.7823 -0.7865
 8510SOL    HW226972   5.737   1.635  11.416  0.9386  0.0541  0.5847
 8511SOL     OW26973   2.304   5.169   2.830  0.2364  0.1133  0.2517
 8511SOL    HW126974   2.312   5.087   2.782  0.4275  1.3370 -1.9369
 8511SOL    HW226975   2.225   5.210   2.793  1.2403  1.7769 -0.1418
 8512SOL     OW26976   0.208   0.560  10.409 -0.6115 -0.6619 -0.5427
 8512SOL    HW126977   0.283   0.503  10.392 -0.2014 -0.3070  0.0406
 8512SOL    HW226978   0.133   0.501  10.414 -0.0536 -1.2809  1.0756
 8513SOL     OW26979   0.882   7.205   3.783 -0.0588 -0.1425 -0.6019
 8513SOL    HW126980   0.877   7.263   3.706  0.3269  0.6273 -0.0640
 8513SOL    HW226981   0.798   7.216   3.827 -0.9053 -1.7747 -1.7201
 8514SOL     OW26982   3.066   2.163   5.736  0.0535 -0.2239 -0.1923
 8514SOL    HW126983   3.117   2.213   5.800 -0.0188 -0.2681 -0.0999
 8514SOL    HW226984   2.996   2.123   5.788  0.1969 -0.5446 -0.2402
 8515SOL     OW26985   7.053   3.167   2.842  0.5655 -0.4249  0.4101
 8515SOL    HW126986   7.083   3.246   2.797  0.2890 -0.3585  0.3401
 8515SOL    HW226987   7.072   3.096   2.780  0.2932 -0.3467  0.2356
 8516SOL     OW26988   4.158   6.649  11.642 -0.2436 -0.7204 -0.1683
 8516SOL    HW126989   4.202   6.645  11.557 -2.1381 -0.7075 -1.1960
 8516SOL    HW226990   4.188   6.571  11.688  3.3764  0.8667  0.5532
 8517SOL     OW26991   7.835   4.427   7.297  0.0539  0.5665  0.1788
 8517SOL    HW126992   7.899   4.480   7.344 -0.0643 -0.0831  1.1109
 8517SOL    HW226993   7.888   4.377   7.234  0.2508  1.2494 -0.2017
 8518SOL     OW26994   3.472   6.206   3.358 -0.5082  0.3999 -0.2588
 8518SOL    HW126995   3.485   6.285   3.412 -3.0971  0.3726  0.5584
 8518SOL    HW226996   3.489   6.235   3.269 -0.5081  1.6551  0.1254
 8519SOL     OW26997   0.356   7.396   4.429 -0.4699  0.0319 -0.5464
 8519SOL    HW126998   0.433   7.343   4.451 -2.4637 -2.0017  2.4234
 8519SOL    HW226999   0.374   7.482   4.468 -0.2797 -0.9326  1.6789
 8520SOL     OW27000   5.713   4.466   1.602 -0.9094  0.1224  1.1095
 8520SOL    HW127001   5.644   4.492   1.541 -1.4562 -1.1676  1.1431
 8520SOL    HW227002   5.791   4.456   1.548 -0.2732  3.1238  1.2923
 8521SOL     OW27003   5.665   6.661   4.805 -0.5106 -0.2003 -0.4477
 8521SOL    HW127004   5.713   6.743   4.803  0.6568 -0.7700  1.4664
 8521SOL    HW227005   5.710   6.605   4.741  0.5801 -0.2920  0.3777
 8522SOL     OW27006   2.694   2.050   0.928  0.1398 -0.6049  0.4732
 8522SOL    HW127007   2.643   2.042   0.847 -0.8464  0.9332  0.9094
 8522SOL    HW227008   2.638   2.100   0.987  0.6858 -2.0086  2.2776
 8523SOL     OW27009   2.707   3.629   0.381 -0.1146  0.5442  0.0103
 8523SOL    HW127010   2.665   3.714   0.364 -1.8441 -0.3256 -0.2754
 8523SOL    HW227011   2.699   3.617   0.476  1.5603  1.3644  0.3067
 8524SOL     OW27012   4.781   0.595  12.413  0.0141 -0.4080 -0.5574
 8524SOL    HW127013   4.862   0.628  12.375  0.3127  0.7431  0.9763
 8524SOL    HW227014   4.718   0.593  12.341  0.8855  0.4806 -1.3537
 8525SOL     OW27015   1.983   0.100   8.703 -0.5399 -0.1469 -0.0922
 8525SOL    HW127016   1.918   0.039   8.737  0.8757 -1.1018  1.0331
 8525SOL    HW227017   2.059   0.046   8.683  0.3182  1.0800 -0.2906
 8526SOL     OW27018   3.059   1.048  12.384 -0.0072  0.2833  0.2241
 8526SOL    HW127019   3.019   1.022  12.301 -0.2732  2.3724 -0.3598
 8526SOL    HW227020   3.135   0.989  12.394 -0.7743 -0.9160 -0.7685
 8527SOL     OW27021   7.043   3.120   6.286 -0.2062  0.3542  0.2075
 8527SOL    HW127022   7.120   3.157   6.242  0.3291 -0.3823  0.5067
 8527SOL    HW227023   7.078   3.050   6.341 -1.4055 -2.3901 -2.2327
 8528SOL     OW27024   3.129   5.047   5.824 -0.7144  0.4370 -0.5793
 8528SOL    HW127025   3.069   5.063   5.751 -0.1110 -0.8104 -1.4029
 8528SOL    HW227026   3.076   5.005   5.891 -0.5552 -1.9244 -1.8368
 8529SOL     OW27027   6.426   2.834   6.642  0.2213  0.2633 -0.0485
 8529SOL    HW127028   6.480   2.758   6.667 -0.6315 -0.2790  0.1763
 8529SOL    HW227029   6.350   2.796   6.597 -0.9019  0.8725  1.2663
 8530SOL     OW27030   5.757   0.724   8.462  0.1296 -0.7044  0.6563
 8530SOL    HW127031   5.675   0.685   8.492 -1.8249  1.4501 -1.4770
 8530SOL    HW227032   5.789   0.775   8.537 -1.6877  0.1874  0.8725
 8531SOL     OW27033   7.318   3.972   7.674  0.4237  0.1168 -0.1804
 8531SOL    HW127034   7.290   3.942   7.587  1.2619 -0.8925 -0.1178
 8531SOL    HW227035   7.383   4.040   7.655 -2.3084  2.9344 -0.3348
 8532SOL     OW27036   6.406   3.070   4.748  0.6404  0.0133 -0.2974
 8532SOL    HW127037   6.482   3.037   4.699  0.1827 -0.5141 -0.6628
 8532SOL    HW227038   6.333   3.063   4.687  0.5769  2.1291 -0.5373
 8533SOL     OW27039   6.541   1.066   3.372 -0.0809  0.4175  0.5313
 8533SOL    HW127040   6.583   1.057   3.286  1.4339 -2.1718  1.4295
 8533SOL    HW227041   6.466   1.123   3.356 -0.2628 -0.5107 -2.6711
 8534SOL     OW27042   0.877   3.736   5.527  0.1905 -0.2688 -0.1971
 8534SOL    HW127043   0.892   3.790   5.449 -0.7422 -0.7983 -0.7643
 8534SOL    HW227044   0.943   3.668   5.522  1.5558  0.9217  0.6653
 8535SOL     OW27045   5.816   4.768   9.421  0.0057  0.2279  0.1273
 8535SOL    HW127046   5.812   4.783   9.515  1.4819 -2.2596  0.6832
 8535SOL    HW227047   5.725   4.763   9.393 -0.4714  1.9845  1.1800
 8536SOL     OW27048   1.692   4.990   3.036  0.1330 -0.3580 -0.2587
 8536SOL    HW127049   1.678   4.954   3.123 -2.6111 -1.7446 -1.1449
 8536SOL    HW227050   1.682   5.085   3.047 -1.9173 -0.6371  0.7095
 8537SOL     OW27051   0.827   0.887  11.071 -0.1578  0.3419  0.8627
 8537SOL    HW127052   0.878   0.930  11.002  0.8933 -0.9321  0.8057
 8537SOL    HW227053   0.751   0.943  11.082  0.0444  1.0113 -0.7775
 8538SOL     OW27054   1.622   1.775   2.753  0.6681  0.2834 -0.2484
 8538SOL    HW127055   1.555   1.743   2.815  0.9113  0.7315  0.2519
 8538SOL    HW227056   1.572   1.823   2.687  0.2891 -1.1838 -1.0594
 8539SOL     OW27057   4.425   2.132   1.857  0.2150  0.2571  0.1852
 8539SOL    HW127058   4.491   2.143   1.926 -0.7024  0.6599  1.0082
 8539SOL    HW227059   4.476   2.131   1.776  1.5218 -2.0597  0.9379
 8540SOL     OW27060   3.532   7.170   3.422  0.5442  0.3629  0.1448
 8540SOL    HW127061   3.509   7.098   3.482 -1.0731  1.7762  1.3078
 8540SOL    HW227062   3.514   7.249   3.472 -0.8318  1.6262 -2.1900
 8541SOL     OW27063   2.467   2.383   3.595 -0.1156 -0.4693 -0.5374
 8541SOL    HW127064   2.458   2.288   3.583 -0.2605 -0.3899 -1.0405
 8541SOL    HW227065   2.422   2.400   3.678 -0.0910 -0.8381 -0.4432
 8542SOL     OW27066   0.944   7.703   0.545 -0.3380  0.1365 -0.2580
 8542SOL    HW127067   0.866   7.746   0.508 -2.9101 -3.4431  0.5185
 8542SOL    HW227068   0.944   7.729   0.637 -1.3972 -0.7509  0.0180
 8543SOL     OW27069   5.600   1.970   8.475  0.3364  0.6443  0.7392
 8543SOL    HW127070   5.637   2.021   8.547  0.7719  1.1107  0.1943
 8543SOL    HW227071   5.676   1.929   8.434 -0.1381 -2.0628  2.3431
 8544SOL     OW27072   2.069   4.741   6.869 -0.4030  0.0373  0.1980
 8544SOL    HW127073   2.142   4.686   6.897 -1.4040 -1.5141 -0.1466
 8544SOL    HW227074   2.042   4.786   6.949  0.7721  0.4592  0.3755
 8545SOL     OW27075   0.410   5.627  11.279 -0.3005  0.1486  0.4646
 8545SOL    HW127076   0.392   5.626  11.185  0.3850 -1.3110  0.3207
 8545SOL    HW227077   0.439   5.717  11.297 -1.0851  0.6352 -0.5742
 8546SOL     OW27078   1.805   2.776   2.703 -0.8344  0.3495 -0.0158
 8546SOL    HW127079   1.846   2.702   2.659  0.5507  1.5003 -0.7528
 8546SOL    HW227080   1.716   2.747   2.723 -0.1107 -1.7553  0.3841
 8547SOL     OW27081   5.811   2.410   7.780 -0.6080  0.1642  0.5096
 8547SOL    HW127082   5.792   2.367   7.863  0.6258  0.4465  0.9539
 8547SOL    HW227083   5.787   2.502   7.795  0.8716  0.4920  1.0241
 8548SOL     OW27084   2.022   4.157   8.926 -0.3731 -0.1023  0.4545
 8548SOL    HW127085   2.112   4.169   8.955 -0.1339  0.5628 -0.5181
 8548SOL    HW227086   2.022   4.073   8.880 -0.1557  0.1122  0.0696
 8549SOL     OW27087   1.877   0.036   9.086  0.7383 -0.3096  0.0322
 8549SOL    HW127088   1.854  -0.041   9.034  1.8725 -1.0192  0.5462
 8549SOL    HW227089   1.973   0.033   9.092  0.8194  1.2706 -0.1215
 8550SOL     OW27090   2.257   7.315   9.775 -0.7126  0.0741  0.2509
 8550SOL    HW127091   2.272   7.227   9.810  0.0644 -0.5563 -1.5545
 8550SOL    HW227092   2.345   7.349   9.759 -0.9806  1.5407  1.6976
 8551SOL     OW27093   1.036   7.745   5.224  0.0382 -0.1119  0.4917
 8551SOL    HW127094   1.000   7.696   5.150  0.4156  0.5357 -0.1252
 8551SOL    HW227095   1.084   7.817   5.184 -0.1370  0.5106  1.3825
 8552SOL     OW27096   2.177   4.172  10.694 -0.0111  0.7979 -0.0576
 8552SOL    HW127097   2.268   4.159  10.669  0.6360 -0.8112  2.7240
 8552SOL    HW227098   2.180   4.243  10.759 -0.3125 -0.8151  1.8122
 8553SOL     OW27099   5.281   3.230  11.537  0.0066  0.3888 -0.4694
 8553SOL    HW127100   5.202   3.249  11.589  1.9734  1.9084  2.2541
 8553SOL    HW227101   5.267   3.278  11.455 -2.3179 -0.3015 -0.5576
 8554SOL     OW27102   7.440   6.956   4.904  0.2982  0.1652  0.3429
 8554SOL    HW127103   7.399   6.892   4.847 -0.1834  0.1478  0.7032
 8554SOL    HW227104   7.375   7.026   4.913  1.1576  1.1516 -0.7669
 8555SOL     OW27105   2.129   7.117   2.158  0.3356 -0.3577  0.0457
 8555SOL    HW127106   2.169   7.035   2.128  1.0802 -0.8364  2.1609
 8555SOL    HW227107   2.185   7.147   2.229 -0.8668  1.1246  0.4397
 8556SOL     OW27108   2.093   5.010   5.643 -0.1188  0.0635  0.2392
 8556SOL    HW127109   2.105   4.917   5.623 -0.8341  0.2666 -1.3360
 8556SOL    HW227110   2.035   5.012   5.719 -0.3996 -0.7890  0.0523
 8557SOL     OW27111   5.245   3.398   0.963 -0.2204  0.2371  0.4990
 8557SOL    HW127112   5.250   3.441   1.048  2.0013 -0.3632  0.7410
 8557SOL    HW227113   5.230   3.306   0.984 -2.0989  0.4121  0.0963
 8558SOL     OW27114   3.495   0.549   1.005  0.2340 -0.4485 -0.1863
 8558SOL    HW127115   3.561   0.480   1.002  0.2467 -0.4333 -0.2668
 8558SOL    HW227116   3.515   0.599   1.084  0.4599 -0.3041 -0.3349
 8559SOL     OW27117   5.281   3.817   7.132  0.2229 -0.3847  0.1175
 8559SOL    HW127118   5.246   3.886   7.075  3.8917  1.8042  0.2258
 8559SOL    HW227119   5.229   3.824   7.212 -0.6719  1.0432 -0.5367
 8560SOL     OW27120   4.832   2.622  11.720  0.2366  0.4085 -0.0063
 8560SOL    HW127121   4.742   2.622  11.751  0.4324  1.3439  0.6078
 8560SOL    HW227122   4.879   2.679  11.781  1.3371 -0.3881 -0.0633
 8561SOL     OW27123   4.035   5.690   6.348 -0.1757  0.2131  0.1251
 8561SOL    HW127124   4.017   5.599   6.368 -0.6603  0.1613 -0.5120
 8561SOL    HW227125   3.990   5.739   6.416 -0.6263  0.0001 -0.0188
 8562SOL     OW27126   2.797   6.789   4.463 -0.3932  0.1585 -0.2360
 8562SOL    HW127127   2.716   6.806   4.510 -0.3238 -0.3840  0.0898
 8562SOL    HW227128   2.861   6.850   4.502 -0.0248 -1.1370  1.2549
 8563SOL     OW27129   1.611   3.491   3.311 -0.4918  0.1062  0.1783
 8563SOL    HW127130   1.580   3.428   3.246 -1.2157  0.6145  0.0148
 8563SOL    HW227131   1.531   3.530   3.346 -0.0446  1.0891  0.1246
 8564SOL     OW27132   3.128   3.788   4.063  0.1030  0.3558  0.3137
 8564SOL    HW127133   3.145   3.702   4.025  1.0431  0.5204  0.3328
 8564SOL    HW227134   3.071   3.770   4.138 -0.2471 -0.1711 -0.0677
 8565SOL     OW27135   7.274   1.998   1.948 -0.2374 -0.3223 -0.2692
 8565SOL    HW127136   7.264   2.042   1.863 -0.8064 -1.9318 -1.0865
 8565SOL    HW227137   7.310   2.065   2.006 -1.2654  1.2753 -1.3789
 8566SOL     OW27138   2.198   1.642   0.083 -0.1914 -0.2375 -0.0830
 8566SOL    HW127139   2.208   1.679  -0.005  1.5009 -0.2289  0.0854
 8566SOL    HW227140   2.136   1.571   0.072  0.2053 -0.4067 -1.3484
 8567SOL     OW27141   5.595   1.720   3.254  0.1447 -0.1204 -0.4384
 8567SOL    HW127142   5.648   1.789   3.294 -2.4452  2.2217 -0.7079
 8567SOL    HW227143   5.505   1.751   3.263 -1.0490 -2.7447 -2.0775
 8568SOL     OW27144   6.631   2.126   0.125 -0.6547  0.1315  0.1707
 8568SOL    HW127145   6.674   2.183   0.188 -0.2066  2.0424 -1.7548
 8568SOL    HW227146   6.702   2.076   0.084 -0.6793  0.4758 -0.3064
 8569SOL     OW27147   6.770   5.688   5.575  0.1190  0.1992  0.2870
 8569SOL    HW127148   6.773   5.601   5.537  2.0916  0.3173  0.0764
 8569SOL    HW227149   6.691   5.728   5.538  0.2869 -0.7972 -1.2151
 8570SOL     OW27150   4.838   4.802   6.435 -0.3501 -0.1056 -0.3856
 8570SOL    HW127151   4.835   4.712   6.466  0.4023 -0.0150 -0.0081
 8570SOL    HW227152   4.867   4.853   6.511 -0.5161  0.4198 -0.6635
 8571SOL     OW27153   0.728   3.253   6.919  0.1256  0.5366  0.6177
 8571SOL    HW127154   0.683   3.303   6.988 -3.1753 -2.0029  0.5332
 8571SOL    HW227155   0.730   3.312   6.844  0.8365  2.1813  1.8519
 8572SOL     OW27156   5.933   0.353   9.426  0.6341  0.6286  0.0013
 8572SOL    HW127157   5.979   0.346   9.342  0.5303  0.6406 -0.0563
 8572SOL    HW227158   6.003   0.367   9.490  0.7509  0.1773 -0.0255
 8573SOL     OW27159   1.164   3.266   2.303 -0.1380  0.1036 -0.4198
 8573SOL    HW127160   1.097   3.287   2.368  0.3845  1.3872 -0.2720
 8573SOL    HW227161   1.116   3.225   2.231 -1.0608  0.8737 -0.2574
 8574SOL     OW27162   3.122   6.514   3.511 -0.4266 -0.6354  0.2868
 8574SOL    HW127163   3.132   6.506   3.606 -2.4005 -0.6188  0.5436
 8574SOL    HW227164   3.082   6.601   3.499  0.6529 -0.2394 -0.6578
 8575SOL     OW27165   6.497   5.445   1.184  0.0476  0.5309  0.2033
 8575SOL    HW127166   6.439   5.452   1.108  0.2194  0.8852  0.1023
 8575SOL    HW227167   6.447   5.395   1.248 -0.6267  1.3763  0.3622
 8576SOL     OW27168   4.464   3.985   3.094 -0.3763 -0.6158  0.6014
 8576SOL    HW127169   4.465   4.055   3.028  2.5595 -0.4491  0.6617
 8576SOL    HW227170   4.416   4.023   3.168 -0.3194  0.7009 -0.0042
 8577SOL     OW27171   4.175   4.503   7.778 -0.0808  0.0448 -0.4836
 8577SOL    HW127172   4.165   4.598   7.787 -0.9097 -0.0505 -0.3403
 8577SOL    HW227173   4.133   4.467   7.856 -0.6757 -0.4850 -1.0408
 8578SOL     OW27174   2.352   6.584   2.695  0.1977 -0.0502 -0.3911
 8578SOL    HW127175   2.313   6.517   2.641  0.3884  0.2135 -0.8605
 8578SOL    HW227176   2.378   6.653   2.634 -1.9192  1.4305  0.2818
 8579SOL     OW27177   4.466   2.926   6.286 -0.0341  0.1410  0.0730
 8579SOL    HW127178   4.490   2.863   6.219  0.9308  2.2650 -1.6791
 8579SOL    HW227179   4.549   2.957   6.321 -0.5021 -1.1637  2.6210
 8580SOL     OW27180   0.535   7.964   8.231  0.4105  0.2047  0.2975
 8580SOL    HW127181   0.484   7.990   8.154  0.3067  1.4394  0.7484
 8580SOL    HW227182   0.548   7.870   8.221 -0.2235  0.2191 -0.8558
 8581SOL     OW27183   6.788   2.772   3.734  0.4155  0.4761  0.3611
 8581SOL    HW127184   6.796   2.818   3.651  0.6327  0.7078  0.5098
 8581SOL    HW227185   6.878   2.760   3.764  0.3487  0.1725  0.4406
 8582SOL     OW27186   5.155   6.166  11.728  0.1021  0.3456  0.1199
 8582SOL    HW127187   5.141   6.082  11.772 -1.7493 -0.4317 -1.7615
 8582SOL    HW227188   5.067   6.197  11.708  0.8024  1.9254 -0.6852
 8583SOL     OW27189   5.955   2.914   7.097  0.1842 -0.1206 -0.2702
 8583SOL    HW127190   5.925   2.851   7.031  0.6777 -1.1393  0.4569
 8583SOL    HW227191   6.049   2.898   7.105  0.4497  1.1849 -0.5520
 8584SOL     OW27192   5.750   6.949   7.860 -0.4356  0.3113 -0.0780
 8584SOL    HW127193   5.730   7.016   7.926 -0.5246  2.8440 -2.5197
 8584SOL    HW227194   5.845   6.943   7.860 -0.4411  0.1576  0.3796
 8585SOL     OW27195   5.361   5.518  12.188  0.3023  0.3854 -0.2189
 8585SOL    HW127196   5.430   5.486  12.129  0.8519 -1.7377  1.4270
 8585SOL    HW227197   5.401   5.593  12.232  1.8863 -1.1837  1.1647
 8586SOL     OW27198   0.825   0.455   3.463  0.0956 -0.1024  0.3574
 8586SOL    HW127199   0.732   0.473   3.449 -0.6199 -2.8842  0.9679
 8586SOL    HW227200   0.842   0.377   3.411  1.5491 -0.8429  1.8696
 8587SOL     OW27201   3.912   2.394  10.902 -0.2060  0.2934 -0.0671
 8587SOL    HW127202   3.837   2.447  10.875  0.5516  1.0257 -0.7810
 8587SOL    HW227203   3.965   2.453  10.956  0.1437 -0.0493 -0.0288
 8588SOL     OW27204   6.170   5.341   1.649 -0.2091  0.0409 -0.6020
 8588SOL    HW127205   6.092   5.355   1.702 -0.3840 -1.0940 -0.5447
 8588SOL    HW227206   6.209   5.428   1.641 -0.4523  0.3127  0.9418
 8589SOL     OW27207   2.835   2.276   1.629 -0.6887 -0.0070  0.0998
 8589SOL    HW127208   2.798   2.259   1.716 -1.9409  0.4800 -0.3153
 8589SOL    HW227209   2.858   2.189   1.596 -1.4308 -0.3338  0.4082
 8590SOL     OW27210   3.158   2.892   3.671  0.0803 -0.5961 -0.2236
 8590SOL    HW127211   3.239   2.852   3.640  1.1581  0.2027  1.4154
 8590SOL    HW227212   3.153   2.975   3.624  2.8178  1.6195  2.8787
 8591SOL     OW27213   0.543   6.732  10.673  0.4562  0.0001  0.3652
 8591SOL    HW127214   0.478   6.728  10.742  0.4957  1.7074  0.5478
 8591SOL    HW227215   0.618   6.683  10.707 -1.2593 -3.5777 -0.5718
 8592SOL     OW27216   0.199   3.408   3.761  0.1769  0.1298 -0.0334
 8592SOL    HW127217   0.144   3.463   3.816  1.9386  0.9079  1.0349
 8592SOL    HW227218   0.160   3.320   3.770 -2.2850  1.0035 -1.2661
 8593SOL     OW27219   4.606   3.542   5.132 -0.3429  0.2427 -0.7451
 8593SOL    HW127220   4.692   3.545   5.173 -0.6094  0.7981 -0.2103
 8593SOL    HW227221   4.616   3.591   5.050 -0.1255  0.2080 -0.7392
 8594SOL     OW27222   7.909   0.182   3.656 -0.4707  0.1622 -0.5454
 8594SOL    HW127223   7.896   0.255   3.716 -0.0668  0.2413 -0.5457
 8594SOL    HW227224   7.975   0.128   3.698  1.1563  1.1391 -1.6973
 8595SOL     OW27225   2.122   3.760   7.582  0.0207 -0.1540  0.2959
 8595SOL    HW127226   2.171   3.679   7.590 -0.8289 -0.4839  3.0517
 8595SOL    HW227227   2.186   3.829   7.596  0.5306 -0.3350 -0.9622
 8596SOL     OW27228   5.420   3.138   6.726  0.6074 -0.3879 -0.0937
 8596SOL    HW127229   5.501   3.097   6.696  0.4818 -0.6652 -0.0548
 8596SOL    HW227230   5.404   3.099   6.812 -1.6296 -3.2838 -1.6578
 8597SOL     OW27231   3.838   5.755   9.895  0.8068  0.2269  0.3926
 8597SOL    HW127232   3.838   5.661   9.912 -1.7726  0.2688  1.0742
 8597SOL    HW227233   3.847   5.762   9.800 -0.1797 -0.7962  0.2004
 8598SOL     OW27234   7.329   3.952   8.782  0.1322  0.2720 -1.0530
 8598SOL    HW127235   7.333   4.041   8.749 -0.1519  0.4821 -0.5410
 8598SOL    HW227236   7.357   3.897   8.709  2.1280  0.9002 -0.8142
 8599SOL     OW27237   1.250   1.867   4.568 -0.2192  0.1497  0.0745
 8599SOL    HW127238   1.277   1.898   4.481 -0.2914 -0.3815 -0.1418
 8599SOL    HW227239   1.304   1.917   4.629  0.5733 -0.2091 -0.3216
 8600SOL     OW27240   1.609   6.842  11.891  0.3809 -0.1649  0.7680
 8600SOL    HW127241   1.691   6.828  11.844 -0.8324 -1.0167 -1.2278
 8600SOL    HW227242   1.598   6.937  11.892  1.0674 -0.0731  0.4837
 8601SOL     OW27243   3.633   0.384   9.064 -0.5061 -0.3916 -0.0462
 8601SOL    HW127244   3.666   0.372   9.153  0.8807  0.3884 -0.4316
 8601SOL    HW227245   3.596   0.298   9.040  2.6171 -1.8474 -0.1259
 8602SOL     OW27246   1.668   1.449   7.675 -0.6511 -0.3098 -0.1146
 8602SOL    HW127247   1.592   1.400   7.644  0.5042 -1.6908 -0.9374
 8602SOL    HW227248   1.715   1.472   7.595  0.1934 -0.1724  0.4107
 8603SOL     OW27249   5.758   4.319   8.396 -0.4018  0.2373 -0.0054
 8603SOL    HW127250   5.746   4.318   8.301  1.3269  1.6975 -0.2993
 8603SOL    HW227251   5.822   4.251   8.413 -0.5170  0.1497  0.0760
 8604SOL     OW27252   5.013   4.907   9.867 -0.0645  0.1578  0.2714
 8604SOL    HW127253   5.098   4.936   9.900 -0.7159 -0.3238  2.6215
 8604SOL    HW227254   4.950   4.939   9.932 -1.6899  0.4262 -1.3488
 8605SOL     OW27255   1.904   4.915   9.848 -0.3322 -0.2279  0.4111
 8605SOL    HW127256   1.881   4.876   9.763 -0.4022 -0.2681  0.4488
 8605SOL    HW227257   2.000   4.911   9.850 -0.3445 -0.5187  0.4730
 8606SOL     OW27258   6.349   0.841   0.316  0.2170 -0.4744 -0.3437
 8606SOL    HW127259   6.258   0.867   0.327  0.3617  0.7576 -1.6823
 8606SOL    HW227260   6.373   0.798   0.398 -1.3909 -0.3042  0.2365
 8607SOL     OW27261   2.509   6.330   3.087 -0.5402 -0.0491  0.2719
 8607SOL    HW127262   2.480   6.252   3.134 -0.3464  0.4738  1.2887
 8607SOL    HW227263   2.550   6.384   3.154  0.2005  0.4992 -0.6049
 8608SOL     OW27264   2.580   5.679   0.262 -0.5263 -0.0414  0.1976
 8608SOL    HW127265   2.516   5.652   0.196 -0.9034 -0.1552  0.6089
 8608SOL    HW227266   2.654   5.712   0.211  0.5217 -2.9885 -0.3715
 8609SOL     OW27267   7.464   5.961   9.333  0.8481  0.0879  0.2932
 8609SOL    HW127268   7.462   5.879   9.382  1.3642 -0.7287 -1.0052
 8609SOL    HW227269   7.521   6.018   9.384  0.3182 -0.2698  1.3182
 8610SOL     OW27270   3.105   2.495   6.805  0.2720  0.3683  1.3806
 8610SOL    HW127271   3.147   2.443   6.735 -2.3788 -0.9341  0.6208
 8610SOL    HW227272   3.134   2.453   6.886  0.3431 -0.5730  0.8821
 8611SOL     OW27273   2.087   2.882  10.372  0.6319  0.0404 -0.2457
 8611SOL    HW127274   2.109   2.903  10.281 -1.9324 -0.1011 -0.9686
 8611SOL    HW227275   2.160   2.828  10.402  1.6302  0.2384 -2.1520
 8612SOL     OW27276   2.978   3.113   4.296 -0.3310  0.1013  0.3342
 8612SOL    HW127277   2.967   3.021   4.319  0.2515  0.5645  2.7858
 8612SOL    HW227278   3.050   3.113   4.232 -1.7297 -1.2627 -1.3425
 8613SOL     OW27279   7.887   5.929   1.030  0.1820  0.3917 -0.0129
 8613SOL    HW127280   7.843   5.855   1.072  0.1849  0.3773 -0.0356
 8613SOL    HW227281   7.970   5.937   1.077  0.1886  0.3703 -0.0208
 8614SOL     OW27282   6.354   6.489  10.697  0.0741  0.7853  0.2998
 8614SOL    HW127283   6.409   6.432  10.751 -2.5572 -0.6412  1.6902
 8614SOL    HW227284   6.415   6.549  10.655  2.7862 -1.5055  0.6744
 8615SOL     OW27285   6.419   6.466   8.812  0.4459 -0.1066  0.1942
 8615SOL    HW127286   6.428   6.427   8.725  1.5893 -1.1936  0.7598
 8615SOL    HW227287   6.441   6.558   8.799  0.7549 -0.2882 -0.6605
 8616SOL     OW27288   5.421   1.167  11.017  0.0703 -0.2982 -0.0459
 8616SOL    HW127289   5.417   1.075  11.046  0.7153 -0.6580 -1.0517
 8616SOL    HW227290   5.349   1.210  11.064 -0.4726 -1.3894  0.1580
 8617SOL     OW27291   5.639   4.041   9.912  0.7999  0.7933 -0.0724
 8617SOL    HW127292   5.685   3.957   9.916  0.9269  0.8072 -1.1597
 8617SOL    HW227293   5.701   4.100   9.871  0.8051  1.5024  0.9194
 8618SOL     OW27294   1.847   5.714   5.068 -0.4560  0.4641 -0.4425
 8618SOL    HW127295   1.905   5.683   5.138 -1.6017 -1.1285 -0.1472
 8618SOL    HW227296   1.824   5.803   5.094 -1.9870 -0.5542  2.0289
 8619SOL     OW27297   1.236   3.028   3.622  0.2338  0.5788  0.0822
 8619SOL    HW127298   1.287   2.968   3.677  0.4266  0.2528 -0.4339
 8619SOL    HW227299   1.187   2.970   3.563  0.3991  0.9245 -0.4040
 8620SOL     OW27300   4.915   5.755  11.862 -0.2589 -0.1885 -0.3413
 8620SOL    HW127301   4.998   5.719  11.895 -0.0644  0.4223 -0.1403
 8620SOL    HW227302   4.851   5.687  11.878 -0.2186  0.1754  1.5480
 8621SOL     OW27303   1.908   7.706   1.354  0.3357 -0.1564  0.2356
 8621SOL    HW127304   1.985   7.668   1.312 -0.4979 -0.9416 -0.6385
 8621SOL    HW227305   1.942   7.782   1.403  1.2781  1.2027 -2.3549
 8622SOL     OW27306   4.134   1.783   9.642  0.0527 -0.8675 -0.4475
 8622SOL    HW127307   4.193   1.857   9.654  0.0183 -0.9204  0.0726
 8622SOL    HW227308   4.060   1.802   9.699 -0.6638 -0.5634 -1.4551
 8623SOL     OW27309   1.407   6.626   8.593  0.3614  0.7029  0.3865
 8623SOL    HW127310   1.461   6.674   8.530  1.6960  1.2679  1.9074
 8623SOL    HW227311   1.336   6.688   8.614 -0.2956  0.3843 -0.7550
 8624SOL     OW27312   7.191   1.221  10.632  0.1169 -0.7955  0.1972
 8624SOL    HW127313   7.114   1.237  10.686 -0.4562 -2.8926  0.0743
 8624SOL    HW227314   7.172   1.267  10.550  0.1441  0.7966  1.0535
 8625SOL     OW27315   1.412   4.208  10.897 -0.2156 -0.2389 -0.3125
 8625SOL    HW127316   1.465   4.151  10.954  0.7620  1.0001  0.0612
 8625SOL    HW227317   1.471   4.230  10.825 -0.0615  1.4548  0.2899
 8626SOL     OW27318   6.378   1.937   2.447 -0.0936 -0.0895  0.4122
 8626SOL    HW127319   6.341   2.016   2.408 -2.0331 -1.6197 -1.0815
 8626SOL    HW227320   6.393   1.960   2.539 -0.0619  2.1403 -0.1085
 8627SOL     OW27321   6.774   7.923   7.836 -0.5717 -0.1135 -0.8539
 8627SOL    HW127322   6.727   7.957   7.760  1.3061  3.0361 -0.7822
 8627SOL    HW227323   6.709   7.872   7.884 -2.5062 -0.0353 -3.2225
 8628SOL     OW27324   5.022   2.311   2.769 -0.2994  0.0622 -0.0041
 8628SOL    HW127325   5.108   2.350   2.751  0.1341 -0.6546  0.4843
 8628SOL    HW227326   5.033   2.268   2.854 -1.0855 -0.2124 -0.0410
 8629SOL     OW27327   1.481   6.513   2.785 -0.2587 -0.3757 -0.2966
 8629SOL    HW127328   1.406   6.472   2.828 -1.4823 -0.8613 -2.7553
 8629SOL    HW227329   1.510   6.580   2.847 -2.3696 -0.5267  0.9534
 8630SOL     OW27330   7.486   7.959  11.020  0.1501 -0.1033  0.3126
 8630SOL    HW127331   7.411   7.905  10.997  0.1362 -0.1230  0.4013
 8630SOL    HW227332   7.449   8.034  11.067  0.2759 -0.7157  1.4323
 8631SOL     OW27333   5.986   6.525   3.897 -0.4111  0.1783 -0.1238
 8631SOL    HW127334   6.044   6.599   3.916  3.4728 -1.9483 -2.4062
 8631SOL    HW227335   5.979   6.478   3.980 -0.2614  1.3399  0.5769
 8632SOL     OW27336   4.909   6.510   5.557  0.8712  0.0931  0.1969
 8632SOL    HW127337   4.966   6.434   5.555  0.8256  0.0368 -2.3095
 8632SOL    HW227338   4.954   6.575   5.503 -0.3782  0.8490  0.0234
 8633SOL     OW27339   1.199   4.154   3.837  0.5774 -0.2025  0.0852
 8633SOL    HW127340   1.146   4.208   3.897 -0.5808 -1.1746 -0.0335
 8633SOL    HW227341   1.226   4.215   3.768 -0.4688  0.3000  0.0973
 8634SOL     OW27342   5.266   4.588   7.707 -0.1251  0.0444 -0.2491
 8634SOL    HW127343   5.209   4.530   7.657 -0.1011  0.0104 -0.2380
 8634SOL    HW227344   5.238   4.576   7.798 -1.1633  1.2213 -0.3884
 8635SOL     OW27345   5.194   4.635   8.310  0.2008 -0.6095  0.1971
 8635SOL    HW127346   5.233   4.548   8.302  0.7027 -0.5079  1.4050
 8635SOL    HW227347   5.144   4.632   8.391  1.6307  0.7416  1.1805
 8636SOL     OW27348   4.703   4.286   1.738  0.2057 -0.1708 -0.0716
 8636SOL    HW127349   4.649   4.363   1.718  0.3751  0.3268  1.3206
 8636SOL    HW227350   4.776   4.291   1.676 -0.8094 -0.3281 -1.3383
 8637SOL     OW27351   6.165   4.070   7.396  0.4806 -0.4281 -0.4731
 8637SOL    HW127352   6.075   4.098   7.380  0.2389 -1.5068 -1.0749
 8637SOL    HW227353   6.184   4.101   7.485  0.4595  2.1405 -1.2703
 8638SOL     OW27354   6.782   3.205   7.058 -0.2943  0.3791  0.7460
 8638SOL    HW127355   6.716   3.234   7.122 -0.3100  0.8144  0.5327
 8638SOL    HW227356   6.784   3.274   6.992  1.6211  1.2613  1.6328
 8639SOL     OW27357   0.124   2.638   9.363 -0.0784  0.1640  0.3816
 8639SOL    HW127358   0.067   2.570   9.399  0.7447  0.3967  2.2540
 8639SOL    HW227359   0.081   2.665   9.282  0.7073 -4.1665 -1.7806
 8640SOL     OW27360   4.807   2.431   6.312  0.1923  0.5876 -0.7011
 8640SOL    HW127361   4.829   2.494   6.243 -1.5821  1.1525 -0.7895
 8640SOL    HW227362   4.720   2.457   6.342  0.6553 -0.0106  1.3481
 8641SOL     OW27363   0.534   1.012   6.414 -0.1772 -0.5997  0.0683
 8641SOL    HW127364   0.623   0.980   6.401  0.3056  1.3331 -2.1645
 8641SOL    HW227365   0.544   1.087   6.473 -0.4599 -0.8685  0.4659
 8642SOL     OW27366   7.930   7.380  10.534 -0.3529 -0.0829 -0.0585
 8642SOL    HW127367   7.919   7.355  10.626 -1.2820 -0.0553 -0.1572
 8642SOL    HW227368   8.006   7.438  10.534 -1.5744  1.6068  1.0145
 8643SOL     OW27369   4.243   6.438   7.804  0.2665  0.0633 -0.0889
 8643SOL    HW127370   4.248   6.371   7.736  3.8165  0.4917 -0.4682
 8643SOL    HW227371   4.289   6.400   7.879  0.2774  1.2045  0.5021
 8644SOL     OW27372   0.796   0.829   2.674 -0.0955  0.2223 -0.5405
 8644SOL    HW127373   0.771   0.907   2.724  0.2833 -0.9905  1.6630
 8644SOL    HW227374   0.891   0.834   2.668 -0.2073  1.2076 -2.7486
 8645SOL     OW27375   5.536   6.685   1.265 -0.1439 -0.4077 -0.4415
 8645SOL    HW127376   5.590   6.761   1.287  0.6807 -0.3946 -2.2915
 8645SOL    HW227377   5.544   6.627   1.341 -0.7691  1.2978  1.0014
 8646SOL     OW27378   3.334   1.088   5.369 -0.4435  0.1683 -0.1673
 8646SOL    HW127379   3.249   1.054   5.342 -0.0821 -0.9984  0.1108
 8646SOL    HW227380   3.392   1.011   5.370  0.1939  0.6311  1.2876
 8647SOL     OW27381   4.422   0.226   3.556  0.4631 -0.2592  0.4039
 8647SOL    HW127382   4.449   0.136   3.573  1.7470  0.3745  2.0795
 8647SOL    HW227383   4.460   0.276   3.629  0.4940  1.7505 -0.9188
 8648SOL     OW27384   2.479   6.589   3.633  0.0360 -0.0315  0.4203
 8648SOL    HW127385   2.395   6.617   3.595  0.5380 -0.3537 -1.0235
 8648SOL    HW227386   2.513   6.667   3.675 -0.8931  0.1621  0.8440
 8649SOL     OW27387   5.948   7.032   3.468 -0.1389  0.2589 -0.5717
 8649SOL    HW127388   5.869   6.996   3.429 -0.7917  1.7684 -0.7057
 8649SOL    HW227389   5.984   7.090   3.401  1.1000 -0.4126 -0.5174
 8650SOL     OW27390   1.665   2.887   4.389 -0.1139 -0.0319 -0.2958
 8650SOL    HW127391   1.612   2.807   4.388  1.5469 -1.1907 -0.8239
 8650SOL    HW227392   1.608   2.954   4.350 -1.3022 -1.1273 -0.5127
 8651SOL     OW27393   7.670   4.289   5.328 -0.0345 -0.4719  0.4295
 8651SOL    HW127394   7.619   4.310   5.250 -2.7795 -1.5763  1.7942
 8651SOL    HW227395   7.681   4.194   5.325 -1.3418 -0.7076  2.0060
 8652SOL     OW27396   4.365   2.258   5.571  0.0679  0.4318 -0.4194
 8652SOL    HW127397   4.342   2.251   5.478  0.5193 -1.5405 -0.4237
 8652SOL    HW227398   4.383   2.168   5.598  1.6327  1.1575  1.1592
 8653SOL     OW27399   4.017   2.357   7.456 -0.1817  0.3000 -0.0234
 8653SOL    HW127400   4.005   2.270   7.494 -0.4967  0.0273 -0.7318
 8653SOL    HW227401   4.011   2.416   7.530  0.6699 -0.3258  0.5576
 8654SOL     OW27402   3.729   6.591   1.471 -0.0213  0.1004  0.6642
 8654SOL    HW127403   3.700   6.660   1.411 -0.3671  0.3067  1.0560
 8654SOL    HW227404   3.677   6.514   1.446  2.6499 -1.0416 -1.9477
 8655SOL     OW27405   5.210   6.217   0.987 -0.3206 -0.1710  0.0610
 8655SOL    HW127406   5.261   6.174   0.918  0.2390 -1.1072  1.0333
 8655SOL    HW227407   5.245   6.306   0.990  1.0050 -0.6819  0.4327
 8656SOL     OW27408   5.895   7.181   0.170  0.4692 -0.5615 -0.0963
 8656SOL    HW127409   5.872   7.221   0.086 -0.9724 -2.0924 -0.4785
 8656SOL    HW227410   5.833   7.218   0.232  0.7215 -0.3789  0.0499
 8657SOL     OW27411   7.538   5.044   2.510  0.3162  0.7556  0.3575
 8657SOL    HW127412   7.540   4.956   2.473 -1.3674  0.0838  1.7040
 8657SOL    HW227413   7.492   5.096   2.445  0.8473  0.5360 -0.2081
 8658SOL     OW27414   4.111   2.655   0.121  0.0742  0.0474  0.3071
 8658SOL    HW127415   4.199   2.682   0.095 -0.2140  0.7393 -0.0063
 8658SOL    HW227416   4.103   2.683   0.212 -0.2134  1.0706 -0.0079
 8659SOL     OW27417   6.158   0.652   7.371 -0.2140  0.4699 -0.3829
 8659SOL    HW127418   6.087   0.589   7.381  1.4850 -1.7704 -1.4841
 8659SOL    HW227419   6.230   0.616   7.422  0.6723  1.8094 -0.6318
 8660SOL     OW27420   7.287   3.091   8.614  0.3957  0.0299  0.0621
 8660SOL    HW127421   7.295   3.042   8.532 -1.5224  0.3294 -0.3416
 8660SOL    HW227422   7.375   3.089   8.651  1.1085 -0.8800 -1.5599
 8661SOL     OW27423   4.386   3.631   6.361 -0.0119 -0.3165 -0.1080
 8661SOL    HW127424   4.452   3.573   6.323  0.0197 -0.2524 -0.1521
 8661SOL    HW227425   4.307   3.577   6.365  0.4469 -0.9087  1.4681
 8662SOL     OW27426   1.806   1.835  10.468 -0.1240 -0.3929  0.3381
 8662SOL    HW127427   1.898   1.847  10.489  0.0955 -2.2254  0.5243
 8662SOL    HW227428   1.806   1.796  10.381 -0.7495  0.0786  0.1199
 8663SOL     OW27429   3.852   1.934   4.169  0.2801 -0.0943  0.4099
 8663SOL    HW127430   3.945   1.936   4.146  0.1207 -1.0143 -0.3744
 8663SOL    HW227431   3.851   1.942   4.264  1.1753 -0.2389  0.4422
 8664SOL     OW27432   0.477   3.793   3.432 -0.0362 -0.1116 -0.3473
 8664SOL    HW127433   0.431   3.720   3.474  0.6823 -1.3613 -1.6663
 8664SOL    HW227434   0.549   3.813   3.492 -1.6791  1.2669  1.2851
 8665SOL     OW27435   1.094   6.035   9.490 -0.0233  0.2806  0.4105
 8665SOL    HW127436   1.026   6.094   9.456 -0.2333 -0.6768 -0.9449
 8665SOL    HW227437   1.142   6.087   9.554 -1.8139  1.0979  1.1587
 8666SOL     OW27438   7.646   3.677   9.823 -0.0778  0.5613 -0.1039
 8666SOL    HW127439   7.554   3.699   9.838 -0.2618  0.4560 -1.0191
 8666SOL    HW227440   7.650   3.655   9.730  0.4067 -1.6316  0.3712
 8667SOL     OW27441   3.803   0.622   1.601 -0.1860 -0.6300 -0.3152
 8667SOL    HW127442   3.778   0.565   1.673  0.9447  0.5343  1.0569
 8667SOL    HW227443   3.893   0.648   1.621 -0.2842  0.7427 -1.4795
 8668SOL     OW27444   7.411   7.256  10.571  0.3193 -0.1974 -0.2283
 8668SOL    HW127445   7.407   7.351  10.558 -2.5887 -0.1273  0.4187
 8668SOL    HW227446   7.458   7.223  10.494  1.1325  1.7252 -0.6036
 8669SOL     OW27447   1.057   2.076   1.944  0.0321 -0.4419 -0.0885
 8669SOL    HW127448   1.059   2.051   2.037  1.4385 -0.6674 -0.1534
 8669SOL    HW227449   1.002   2.154   1.942  1.2888  0.5448  1.2180
 8670SOL     OW27450   2.832   4.655  10.500 -0.5074  0.6587  0.0153
 8670SOL    HW127451   2.814   4.600  10.576 -0.7661  0.3434 -0.2743
 8670SOL    HW227452   2.917   4.626  10.468  0.0278  1.3923  0.7103
 8671SOL     OW27453   3.259   2.515   4.944  0.1359  0.1879 -0.1927
 8671SOL    HW127454   3.214   2.579   4.998 -0.1321  0.1297 -0.3492
 8671SOL    HW227455   3.192   2.479   4.887 -0.1094 -1.5212  1.0975
 8672SOL     OW27456   0.918   0.809   3.540 -0.3840  0.4603 -0.1048
 8672SOL    HW127457   0.916   0.753   3.463  0.5295 -1.1482  0.9895
 8672SOL    HW227458   0.836   0.791   3.586 -0.4861  0.6731 -0.2052
 8673SOL     OW27459   5.417   0.507  11.296  0.0263 -0.3940  0.3478
 8673SOL    HW127460   5.436   0.563  11.372  0.1377 -0.0063  0.0364
 8673SOL    HW227461   5.500   0.504  11.248 -0.1949 -0.1767 -0.0558
 8674SOL     OW27462   2.607   3.808   0.725 -0.1457  0.0000  0.3582
 8674SOL    HW127463   2.588   3.741   0.790  1.3696 -0.0829  0.7611
 8674SOL    HW227464   2.522   3.831   0.688 -0.7803 -1.5538  0.7857
 8675SOL     OW27465   5.635   1.827   3.938 -0.3354  0.3614 -0.3396
 8675SOL    HW127466   5.638   1.856   3.847  0.6089  0.2822 -0.3420
 8675SOL    HW227467   5.578   1.890   3.981 -0.9352  0.2957 -1.0161
 8676SOL     OW27468   1.072   3.363   2.876  0.4501 -0.2586  0.1868
 8676SOL    HW127469   1.085   3.272   2.850  1.6123 -0.0313 -0.0881
 8676SOL    HW227470   1.063   3.410   2.793 -2.1553 -0.3572  0.3390
 8677SOL     OW27471   3.490   1.753   3.006 -0.1673  0.7850 -0.0351
 8677SOL    HW127472   3.533   1.726   2.925 -0.1935 -0.2263  0.2782
 8677SOL    HW227473   3.540   1.711   3.075 -1.8785 -0.7741  0.3203
 8678SOL     OW27474   6.883   2.937   9.083  0.2468  0.1451  0.1429
 8678SOL    HW127475   6.810   2.880   9.110 -0.1903  0.1984 -0.8834
 8678SOL    HW227476   6.893   2.921   8.989  3.2726 -1.7995  0.6653
 8679SOL     OW27477   6.676   7.899   4.567 -0.2158  0.4424 -0.7489
 8679SOL    HW127478   6.642   7.967   4.509  2.0266  1.0757 -1.4210
 8679SOL    HW227479   6.762   7.877   4.531 -0.0117 -1.2929  0.6479
 8680SOL     OW27480   2.067   0.425   6.605  0.1612 -0.3320 -0.3097
 8680SOL    HW127481   2.081   0.463   6.691  0.8924  0.3836 -0.7278
 8680SOL    HW227482   2.027   0.339   6.622  0.1165 -0.1171  0.7177
 8681SOL     OW27483   7.449   7.871   1.698 -0.2416  0.2651  0.1526
 8681SOL    HW127484   7.387   7.903   1.764 -0.0619  0.1749  0.3687
 8681SOL    HW227485   7.535   7.894   1.733 -0.0122 -1.7253  1.0431
 8682SOL     OW27486   1.803   6.075   5.017 -0.1964  0.6692 -0.1196
 8682SOL    HW127487   1.749   6.071   5.096  1.0098  0.0626  0.7108
 8682SOL    HW227488   1.870   6.141   5.037  0.6487 -0.1227 -0.2639
 8683SOL     OW27489   7.927   3.937   0.542  0.0419  0.0654  0.2373
 8683SOL    HW127490   7.973   3.855   0.559  1.1342  0.4351 -0.8386
 8683SOL    HW227491   7.941   3.955   0.449  0.3173  1.7485  0.5641
 8684SOL     OW27492   7.119   2.069   9.900  0.0314 -0.3350  0.0508
 8684SOL    HW127493   7.149   2.112   9.981 -1.6897 -0.0831  0.5850
 8684SOL    HW227494   7.123   2.137   9.834  1.7358 -0.6165 -0.1939
 8685SOL     OW27495   4.077   5.480  11.331  0.1111  0.1286 -1.1371
 8685SOL    HW127496   4.135   5.407  11.355  1.2143  0.6660 -2.0531
 8685SOL    HW227497   3.989   5.447  11.348  0.6857 -0.6237  0.5586
 8686SOL     OW27498   3.500   7.124   7.803  0.2391 -0.0936  0.0695
 8686SOL    HW127499   3.463   7.039   7.826  0.4519 -0.0235  0.7030
 8686SOL    HW227500   3.577   7.103   7.750 -0.7385 -0.2363 -1.3394
 8687SOL     OW27501   2.602   5.398  10.062 -0.1690  0.1210  0.4454
 8687SOL    HW127502   2.554   5.340  10.120  0.1823 -0.5210  0.1041
 8687SOL    HW227503   2.611   5.349   9.980 -0.8852  1.0993 -0.2543
 8688SOL     OW27504   4.282   5.588   1.872  0.4108  0.2140  0.0486
 8688SOL    HW127505   4.370   5.567   1.904  0.3923  1.6187  1.0919
 8688SOL    HW227506   4.274   5.537   1.791  1.5109 -1.2945  0.8346
 8689SOL     OW27507   5.325   3.973   1.629 -0.6081  0.2765 -0.7617
 8689SOL    HW127508   5.407   4.005   1.667  0.2730 -2.6272  0.0758
 8689SOL    HW227509   5.339   3.978   1.534  0.9509 -0.9018 -0.6491
 8690SOL     OW27510   6.509   7.508   2.621 -0.8034  0.3918  0.2458
 8690SOL    HW127511   6.460   7.573   2.673 -0.7541 -0.7809  1.8198
 8690SOL    HW227512   6.512   7.546   2.533 -3.0532  1.3224  0.4820
 8691SOL     OW27513   4.485   4.756   8.435  0.3133 -0.4875 -0.0236
 8691SOL    HW127514   4.463   4.672   8.476 -1.6775  0.8470  1.8558
 8691SOL    HW227515   4.456   4.746   8.344 -0.4345 -1.6206  0.3171
 8692SOL     OW27516   3.382   6.463   9.555 -0.2549  0.0167  0.3361
 8692SOL    HW127517   3.454   6.405   9.531 -0.6787  0.0606 -1.1311
 8692SOL    HW227518   3.395   6.480   9.648  1.4077 -0.2746  0.1873
 8693SOL     OW27519   6.919   0.297   7.624  0.4189 -0.2814  1.1764
 8693SOL    HW127520   6.896   0.351   7.700 -0.0501 -1.1309  1.6521
 8693SOL    HW227521   6.836   0.288   7.576  0.5776 -0.2720  0.9028
 8694SOL     OW27522   6.068   7.255   6.138 -0.0671 -0.2914 -0.2049
 8694SOL    HW127523   6.021   7.338   6.129  0.9452  0.0575 -3.0850
 8694SOL    HW227524   6.011   7.202   6.195  0.0560  2.8175  3.1488
 8695SOL     OW27525   5.960   0.114   6.520 -0.0499 -0.5660  0.4970
 8695SOL    HW127526   6.006   0.138   6.601 -1.2893  0.2149  0.9935
 8695SOL    HW227527   5.881   0.069   6.550 -0.6121 -0.1093 -0.2715
 8696SOL     OW27528   5.524   5.257   1.099  0.2618  0.6563  0.2664
 8696SOL    HW127529   5.619   5.265   1.109  0.3583  1.2892 -1.0110
 8696SOL    HW227530   5.511   5.228   1.009 -0.8099  2.0477 -0.0688
 8697SOL     OW27531   4.231   2.032   7.198  0.1416  0.2847 -0.8374
 8697SOL    HW127532   4.278   2.091   7.257 -1.2462  0.7631 -0.1561
 8697SOL    HW227533   4.287   1.955   7.191  1.1348  0.9366 -0.2733
 8698SOL     OW27534   1.088   7.389   7.104  0.0792 -0.1671  0.0225
 8698SOL    HW127535   1.173   7.382   7.146  0.2897 -0.7786 -0.5002
 8698SOL    HW227536   1.058   7.298   7.095 -0.9841  0.0744  0.9279
 8699SOL     OW27537   1.516   4.411   4.935 -0.3940  0.1200  0.0224
 8699SOL    HW127538   1.611   4.418   4.921 -0.3647  0.2575  0.2683
 8699SOL    HW227539   1.486   4.347   4.871 -0.3799  1.2025 -1.0912
 8700SOL     OW27540   2.304   0.767   4.814 -0.0532  0.3872 -0.2626
 8700SOL    HW127541   2.258   0.850   4.821 -0.7706 -0.1133  1.3348
 8700SOL    HW227542   2.397   0.790   4.821 -0.2815  0.9848  1.2183
 8701SOL     OW27543   6.839   4.196   3.977 -0.3146  1.3088 -0.3552
 8701SOL    HW127544   6.858   4.179   3.885  1.4984  1.4989 -0.0558
 8701SOL    HW227545   6.896   4.270   3.999  2.1942 -1.0514  1.8518
 8702SOL     OW27546   5.837   4.932   4.074 -0.1137 -0.0945  0.3368
 8702SOL    HW127547   5.899   4.874   4.118 -0.5018  0.9575  2.3683
 8702SOL    HW227548   5.753   4.916   4.118 -0.6184  0.7150 -0.2980
 8703SOL     OW27549   3.757   1.541   7.973  0.3366 -0.1696 -0.3329
 8703SOL    HW127550   3.782   1.449   7.980 -0.2668 -0.3418 -0.4051
 8703SOL    HW227551   3.756   1.558   7.878  2.2253  0.4171 -0.2918
 8704SOL     OW27552   0.724   6.584   8.549  0.4195  0.4603  0.3158
 8704SOL    HW127553   0.744   6.660   8.604  1.8810  0.9373 -0.8326
 8704SOL    HW227554   0.673   6.526   8.606 -0.2389  2.0302  1.3925
 8705SOL     OW27555   5.764   1.196   0.557 -0.3110  0.4278  0.1176
 8705SOL    HW127556   5.786   1.285   0.528 -1.6193  0.9785  0.7063
 8705SOL    HW227557   5.848   1.151   0.562  0.4779  1.8575  0.5060
 8706SOL     OW27558   0.217   2.353   9.167 -0.0341  0.2621 -0.3553
 8706SOL    HW127559   0.252   2.267   9.190 -0.2510  0.5805  1.3000
 8706SOL    HW227560   0.289   2.413   9.183 -0.5678  0.6374  0.7189
 8707SOL     OW27561   0.047   1.762   9.537  0.4311  0.4134 -0.3827
 8707SOL    HW127562   0.114   1.806   9.484 -0.3728  0.3862 -1.4663
 8707SOL    HW227563   0.018   1.828   9.600  1.7118  0.3157  0.3440
 8708SOL     OW27564   5.324   6.422   6.469  0.1430  0.3973  0.6932
 8708SOL    HW127565   5.317   6.498   6.526 -0.3932  0.9100 -0.0382
 8708SOL    HW227566   5.413   6.425   6.435  0.1359  0.6820  0.6966
 8709SOL     OW27567   7.012   4.758   5.082 -0.6460  0.2675 -0.3955
 8709SOL    HW127568   7.021   4.747   5.177 -0.7060 -0.8422 -0.5023
 8709SOL    HW227569   6.925   4.721   5.062 -1.9689  3.1920 -0.5024
 8710SOL     OW27570   6.695   1.440   0.906 -0.2389  0.2256 -0.2282
 8710SOL    HW127571   6.689   1.520   0.854  0.0590 -0.2090 -0.9405
 8710SOL    HW227572   6.658   1.464   0.991 -0.7362  0.9399 -0.6372
 8711SOL     OW27573   4.304   1.280   7.343 -0.0562 -0.2081  0.1647
 8711SOL    HW127574   4.395   1.305   7.326 -0.1313 -0.1652 -0.1812
 8711SOL    HW227575   4.296   1.193   7.303  0.2056 -0.7988  1.3529
 8712SOL     OW27576   3.982   1.664   2.888 -0.1304  0.4757  0.3799
 8712SOL    HW127577   3.967   1.570   2.883 -0.5123  0.4802  1.2324
 8712SOL    HW227578   4.077   1.674   2.880 -0.3029  0.3515 -3.7560
 8713SOL     OW27579   3.154   5.420   8.119 -0.0685  0.3251 -0.0725
 8713SOL    HW127580   3.173   5.336   8.161 -3.1261 -0.3834  0.1063
 8713SOL    HW227581   3.114   5.396   8.036  2.0240  1.7074 -1.5756
 8714SOL     OW27582   1.287   6.783  10.574  0.2104 -0.2535 -0.4645
 8714SOL    HW127583   1.203   6.814  10.540  1.1870  0.8165 -2.0451
 8714SOL    HW227584   1.301   6.835  10.653 -1.1745 -1.3524  0.5463
 8715SOL     OW27585   0.519   4.790  11.005  0.2503  0.5139  0.4838
 8715SOL    HW127586   0.554   4.863  10.954  1.9688 -0.3723  0.3415
 8715SOL    HW227587   0.465   4.741  10.942  1.0666  0.3184 -0.0806
 8716SOL     OW27588   3.793   6.971   8.759 -0.0301 -0.3018 -0.4830
 8716SOL    HW127589   3.732   6.980   8.833  1.4297  0.9518  0.6223
 8716SOL    HW227590   3.834   6.886   8.774  0.8984  0.3230  0.6989
 8717SOL     OW27591   7.903   6.171   0.572 -0.4700  0.3860  0.0753
 8717SOL    HW127592   7.838   6.182   0.503  0.5647 -1.3917 -1.2650
 8717SOL    HW227593   7.865   6.105   0.630  0.0735 -0.6096 -0.6757
 8718SOL     OW27594   1.093   3.800   0.604 -0.4399  0.0584 -0.0296
 8718SOL    HW127595   1.047   3.755   0.534  0.0696  0.4449 -0.6296
 8718SOL    HW227596   1.175   3.751   0.615 -0.4992  0.0232  0.2697
 8719SOL     OW27597   0.908   6.580  11.928  0.6454  0.5479 -0.3405
 8719SOL    HW127598   0.859   6.564  12.009  1.0019  3.1413  0.4534
 8719SOL    HW227599   0.854   6.539  11.860  0.1969 -1.4543  1.1155
 8720SOL     OW27600   4.579   4.843  10.045 -0.2080 -0.2168  0.0317
 8720SOL    HW127601   4.560   4.879  10.132  1.3516  1.0136 -0.0987
 8720SOL    HW227602   4.529   4.899   9.985  0.9618  0.7753 -0.0500
 8721SOL     OW27603   6.657   7.017   7.724 -0.4701  0.2319 -0.6592
 8721SOL    HW127604   6.605   7.091   7.693  0.7659  1.9252  1.0763
 8721SOL    HW227605   6.668   6.961   7.646 -2.7359  1.0262 -1.6396
 8722SOL     OW27606   2.778   3.790   4.401  0.3522 -0.3290 -0.0864
 8722SOL    HW127607   2.697   3.789   4.351  0.2579  0.1500  0.0532
 8722SOL    HW227608   2.767   3.720   4.466  0.5989 -1.1615 -0.9103
 8723SOL     OW27609   3.393   6.892   7.893 -0.3765 -0.1815  0.3598
 8723SOL    HW127610   3.306   6.884   7.855 -0.3361  0.3851  0.1506
 8723SOL    HW227611   3.378   6.895   7.987 -0.7643  2.0470  0.2711
 8724SOL     OW27612   3.797   5.957  11.310 -0.2703  0.1264  0.0518
 8724SOL    HW127613   3.729   5.890  11.301 -2.9485  2.5591  1.0063
 8724SOL    HW227614   3.866   5.928  11.250 -1.3213 -3.3648  0.2985
 8725SOL     OW27615   5.045   4.881   2.523  0.2327  0.4910  0.5328
 8725SOL    HW127616   4.968   4.877   2.466 -0.3741 -0.7866  1.4061
 8725SOL    HW227617   5.102   4.812   2.491  0.8113  1.1037  0.2143
 8726SOL     OW27618   3.231   5.249   4.573 -0.7007 -0.4572 -0.4580
 8726SOL    HW127619   3.301   5.223   4.633  0.5144 -0.7922 -1.9597
 8726SOL    HW227620   3.151   5.230   4.622  0.2219 -1.3833  0.7915
 8727SOL     OW27621   4.385   2.270   0.852  0.0875  0.3136  0.3526
 8727SOL    HW127622   4.330   2.295   0.778 -0.5963  1.5846  1.2532
 8727SOL    HW227623   4.452   2.213   0.814 -2.0229 -1.5800 -0.7239
 8728SOL     OW27624   2.241   5.023   4.804 -0.1077  0.1694 -0.2255
 8728SOL    HW127625   2.312   5.067   4.850 -0.2286 -2.0452  2.2717
 8728SOL    HW227626   2.280   4.942   4.771 -0.9456  0.0039 -0.8522
 8729SOL     OW27627   5.211   4.921   6.130  0.2288  0.0918 -0.2873
 8729SOL    HW127628   5.195   4.857   6.199  0.3499  0.2650 -0.0953
 8729SOL    HW227629   5.299   4.954   6.148 -0.1116  0.8367  0.0488
 8730SOL     OW27630   2.753   2.906   9.592  0.4130  0.0241 -0.3489
 8730SOL    HW127631   2.741   2.950   9.507 -0.6791  3.3156  1.3399
 8730SOL    HW227632   2.808   2.966   9.642  0.1119 -1.2993  1.6690
 8731SOL     OW27633   5.940   0.805   0.849  0.2354 -0.1287 -0.0417
 8731SOL    HW127634   5.846   0.789   0.858  0.3349 -0.7930 -0.0891
 8731SOL    HW227635   5.967   0.746   0.778  0.9668 -1.1241  1.0357
 8732SOL     OW27636   4.941   4.993  11.842  0.5404 -0.1134 -0.0868
 8732SOL    HW127637   4.947   4.903  11.810 -0.3108 -0.2544  0.1440
 8732SOL    HW227638   4.855   4.999  11.882  0.0937  1.1423 -1.1446
 8733SOL     OW27639   1.539   4.994   2.043  0.1714 -0.4941  0.5895
 8733SOL    HW127640   1.487   4.983   1.964 -0.1436 -0.8271  0.8363
 8733SOL    HW227641   1.482   4.961   2.113  0.9331 -1.4050  0.7972
 8734SOL     OW27642   4.822   7.126   8.189  0.7060 -0.7979  0.0228
 8734SOL    HW127643   4.845   7.195   8.127  1.1538 -0.3470  0.6818
 8734SOL    HW227644   4.886   7.057   8.175  0.6498 -0.8083 -0.1872
 8735SOL     OW27645   7.313   1.459   4.001 -0.3947 -0.3273 -0.0893
 8735SOL    HW127646   7.396   1.457   3.953 -0.6014 -0.8128 -0.4424
 8735SOL    HW227647   7.293   1.366   4.016 -0.6285 -0.1952  0.4247
 8736SOL     OW27648   4.419   1.897  10.430  0.0774  0.3159  0.0103
 8736SOL    HW127649   4.377   1.948  10.361  2.0838  2.8744  0.5605
 8736SOL    HW227650   4.479   1.839  10.383 -1.3413 -0.8027 -0.5346
 8737SOL     OW27651   2.322   4.375   7.658 -0.2562 -0.1769 -0.0068
 8737SOL    HW127652   2.325   4.322   7.578 -1.6323 -0.3210  0.0088
 8737SOL    HW227653   2.304   4.312   7.728  1.4854 -0.1296  0.5242
 8738SOL     OW27654   1.287   7.248   7.562 -0.2384 -0.1311 -0.1354
 8738SOL    HW127655   1.243   7.188   7.502 -1.3570 -0.9224  1.4438
 8738SOL    HW227656   1.238   7.243   7.643  1.5612  0.5194  1.0628
 8739SOL     OW27657   6.065   2.801   0.175  0.2560 -0.6274  0.2098
 8739SOL    HW127658   6.118   2.721   0.172 -1.0350 -1.4764 -0.6211
 8739SOL    HW227659   5.976   2.771   0.159 -0.2039  1.0231 -0.4637
 8740SOL     OW27660   4.756   2.002  11.875 -0.2847 -0.3485  0.3590
 8740SOL    HW127661   4.708   2.064  11.930  0.2383  0.5033 -0.1232
 8740SOL    HW227662   4.690   1.936  11.852 -0.7457 -0.2076  1.2173
 8741SOL     OW27663   5.346   0.875   7.132 -0.2824  0.2573  0.0392
 8741SOL    HW127664   5.399   0.925   7.194  0.1193 -1.6809  1.3438
 8741SOL    HW227665   5.259   0.873   7.170 -0.1650 -0.4745  0.2871
 8742SOL     OW27666   1.174   3.142   6.677  0.2845  0.1476  0.7129
 8742SOL    HW127667   1.254   3.142   6.624 -0.6459  0.5089 -0.7505
 8742SOL    HW227668   1.154   3.235   6.690 -1.0496  0.1082 -0.7878
 8743SOL     OW27669   3.250   4.245   8.786  0.0588 -0.8859  0.0130
 8743SOL    HW127670   3.198   4.323   8.772  0.4940  0.1084  3.1090
 8743SOL    HW227671   3.341   4.275   8.778  0.2487 -1.7187 -1.3615
 8744SOL     OW27672   0.970   2.589   1.010 -0.1933 -0.2110 -0.0252
 8744SOL    HW127673   0.886   2.627   1.035 -0.8852 -1.6707 -0.0613
 8744SOL    HW227674   0.949   2.502   0.977  1.3893 -0.8477  0.5402
 8745SOL     OW27675   7.344   6.151  11.899 -0.5953 -0.0344  0.2950
 8745SOL    HW127676   7.318   6.242  11.886 -0.9248 -0.1636  0.0396
 8745SOL    HW227677   7.275   6.114  11.953 -0.6391 -0.2185  0.1168
 8746SOL     OW27678   4.440   2.881   7.303  0.1143  0.2894 -0.4137
 8746SOL    HW127679   4.526   2.861   7.267  0.7466  0.1229  1.1037
 8746SOL    HW227680   4.448   2.971   7.334  0.6047 -0.4945  1.9677
 8747SOL     OW27681   5.925   6.221   2.153  0.1317 -0.3933 -0.2667
 8747SOL    HW127682   5.844   6.176   2.179  0.6742 -1.7264 -0.7718
 8747SOL    HW227683   5.966   6.161   2.091  0.6841  1.0388 -1.3182
 8748SOL     OW27684   4.276   2.605  11.288 -0.5050 -0.0424  0.0537
 8748SOL    HW127685   4.303   2.547  11.217 -0.2651 -0.3096  0.3606
 8748SOL    HW227686   4.306   2.691  11.261  1.1942 -0.4129  0.6390
 8749SOL     OW27687   0.237   7.666   1.739 -0.0002  0.1861 -0.3668
 8749SOL    HW127688   0.320   7.627   1.768 -1.3016 -0.8816  2.2163
 8749SOL    HW227689   0.221   7.736   1.802 -0.5481  1.1271 -1.5167
 8750SOL     OW27690   5.004   6.962   5.148 -0.6653 -0.4676 -0.0948
 8750SOL    HW127691   5.004   7.041   5.094 -0.7413  0.5494  1.3346
 8750SOL    HW227692   5.045   6.895   5.093 -0.2797  0.6484 -1.2123
 8751SOL     OW27693   7.698   0.976   6.692  0.1748 -0.0750  0.1780
 8751SOL    HW127694   7.689   0.956   6.785 -0.4143  2.1493  0.6587
 8751SOL    HW227695   7.620   1.027   6.671  0.6959  0.1521 -1.3593
 8752SOL     OW27696   2.117   0.921   8.943  0.7701 -0.6396  0.6065
 8752SOL    HW127697   2.152   1.009   8.940 -0.2501 -0.2259  0.4383
 8752SOL    HW227698   2.025   0.930   8.918  1.0056 -1.9445 -0.9091
 8753SOL     OW27699   1.941   0.344   0.044  0.0632  0.0259  0.1283
 8753SOL    HW127700   1.976   0.429   0.069  0.9541 -0.6623  1.3550
 8753SOL    HW227701   1.955   0.289   0.121 -1.9863 -0.8109 -0.0340
 8754SOL     OW27702   0.531   5.151  11.768 -0.0788 -0.3981 -0.5036
 8754SOL    HW127703   0.546   5.070  11.817  1.0525 -1.1389 -1.9986
 8754SOL    HW227704   0.439   5.146  11.740 -0.2259 -0.7970  0.0445
 8755SOL     OW27705   6.451   6.715   0.202  0.4046  0.1384 -0.4523
 8755SOL    HW127706   6.395   6.690   0.129 -0.3266  0.2231  0.0660
 8755SOL    HW227707   6.422   6.660   0.275  2.0037 -0.8873 -0.5523
 8756SOL     OW27708   4.282   2.329   7.873 -0.3702 -0.1149  0.1279
 8756SOL    HW127709   4.329   2.297   7.951 -0.2720 -0.0903  0.0797
 8756SOL    HW227710   4.349   2.331   7.804 -0.4622 -0.1527  0.0391
 8757SOL     OW27711   1.578   5.831   9.355  0.2502 -0.0278  0.8711
 8757SOL    HW127712   1.532   5.772   9.296  0.9979 -1.1263  1.3584
 8757SOL    HW227713   1.512   5.895   9.381 -1.1337 -1.7514  1.8216
 8758SOL     OW27714   6.288   5.642   4.966 -0.4768 -0.0436  0.0978
 8758SOL    HW127715   6.328   5.618   4.882 -0.2294 -0.1913  0.2576
 8758SOL    HW227716   6.194   5.643   4.948 -0.4162  0.1047 -0.2285
 8759SOL     OW27717   3.576   1.579   9.247  0.3217  0.6416 -0.6777
 8759SOL    HW127718   3.497   1.528   9.226  0.7211  0.1662 -1.0437
 8759SOL    HW227719   3.612   1.604   9.162  1.2252 -0.1726 -0.5514
 8760SOL     OW27720   3.415   4.586  11.959  0.2391  0.4428  0.4731
 8760SOL    HW127721   3.415   4.566  11.866 -0.6615 -1.4960  0.8318
 8760SOL    HW227722   3.501   4.625  11.976  0.5223  0.5436 -1.0926
 8761SOL     OW27723   2.709   3.978   2.547 -0.0311 -0.5376 -1.0308
 8761SOL    HW127724   2.748   4.064   2.528  0.2879 -1.0985 -3.0916
 8761SOL    HW227725   2.768   3.939   2.612 -0.8449  1.2400  0.8985
 8762SOL     OW27726   4.789   2.890  11.229 -0.0486 -0.1530 -0.4283
 8762SOL    HW127727   4.696   2.901  11.205  0.1919 -1.4260 -2.1578
 8762SOL    HW227728   4.791   2.811  11.282  0.3613 -2.0647 -3.1038
 8763SOL     OW27729   1.892   2.617   9.637  0.2659  0.5771  0.1879
 8763SOL    HW127730   1.857   2.703   9.618 -0.6163  0.2813  0.4432
 8763SOL    HW227731   1.867   2.564   9.561  0.0698  0.3381  0.4188
 8764SOL     OW27732   6.764   0.719   9.403 -0.2764  0.5370  0.0250
 8764SOL    HW127733   6.671   0.740   9.394 -0.8278 -1.0572  1.3565
 8764SOL    HW227734   6.779   0.718   9.498 -0.0021 -3.2607  0.1033
 8765SOL     OW27735   0.720   5.998   2.863 -0.6848  0.9308 -0.2282
 8765SOL    HW127736   0.692   5.908   2.846  0.2648  0.5915 -0.0336
 8765SOL    HW227737   0.811   6.001   2.835 -1.0667  2.1924 -1.4309
 8766SOL     OW27738   7.633   5.047  10.207  0.5461 -0.2493 -0.3153
 8766SOL    HW127739   7.600   5.065  10.119  1.8949  0.7531 -0.6498
 8766SOL    HW227740   7.717   5.092  10.211  0.6071 -0.4363  1.4322
 8767SOL     OW27741   5.338   0.388  10.134 -0.5836 -0.4522  0.4341
 8767SOL    HW127742   5.385   0.320  10.087  0.7034  0.2318  0.6926
 8767SOL    HW227743   5.248   0.355  10.139  0.0570 -2.2830  0.8545
 8768SOL     OW27744   0.915   4.360   5.614  0.1999  0.4343 -0.0503
 8768SOL    HW127745   1.008   4.364   5.589  0.0252 -1.7971 -1.3536
 8768SOL    HW227746   0.892   4.267   5.605 -2.0171  0.8433  0.8264
 8769SOL     OW27747   5.320   1.768  12.286  0.2922  0.2197  0.0768
 8769SOL    HW127748   5.361   1.685  12.311 -0.1817 -0.3211 -0.8565
 8769SOL    HW227749   5.292   1.754  12.195 -0.2668  1.2217  0.0765
 8770SOL     OW27750   1.163   7.160  10.442  0.3590 -0.4641  0.0843
 8770SOL    HW127751   1.085   7.213  10.424  1.2538  0.8458  0.0133
 8770SOL    HW227752   1.136   7.071  10.419 -0.9343  0.0473 -0.4825
 8771SOL     OW27753   0.366   4.150   5.477 -0.3283 -0.0871 -0.3382
 8771SOL    HW127754   0.303   4.079   5.464  0.7414 -1.0370 -0.5023
 8771SOL    HW227755   0.390   4.177   5.388 -0.1462 -0.0765 -0.2876
 8772SOL     OW27756   1.901   0.355   3.201  0.4026 -0.0883 -0.0268
 8772SOL    HW127757   1.949   0.278   3.168 -0.1066 -0.3360 -0.2089
 8772SOL    HW227758   1.966   0.406   3.248  0.6641 -0.8329  0.4282
 8773SOL     OW27759   0.957   2.057   7.848 -0.3614  0.6686  0.1162
 8773SOL    HW127760   1.032   2.116   7.837 -0.5561  1.0092  0.5994
 8773SOL    HW227761   0.881   2.115   7.849 -0.4830  0.5330  1.6819
 8774SOL     OW27762   6.987   3.666   6.573  0.2354  0.1277 -0.2921
 8774SOL    HW127763   7.025   3.752   6.555 -0.8504  0.2449 -2.3238
 8774SOL    HW227764   6.998   3.618   6.491  1.1216 -1.8303  0.9114
 8775SOL     OW27765   3.197   4.555   9.018  0.2490  0.5286 -0.5675
 8775SOL    HW127766   3.230   4.582   8.932 -0.9326  0.3470 -1.0878
 8775SOL    HW227767   3.260   4.489   9.048  1.4849  1.6370 -0.6267
 8776SOL     OW27768   4.498   2.024  11.666  0.7983  0.0196  0.7416
 8776SOL    HW127769   4.446   1.952  11.703 -1.3095  0.9699 -0.2148
 8776SOL    HW227770   4.495   2.093  11.733 -1.5643  1.0908 -0.3642
 8777SOL     OW27771   1.638   1.003   9.523 -0.3523  0.6166 -0.1488
 8777SOL    HW127772   1.684   1.014   9.440  0.5790  2.7839  0.5803
 8777SOL    HW227773   1.585   1.082   9.532 -0.4184  0.4347  1.3390
 8778SOL     OW27774   5.179   3.287   6.700 -0.4768  0.2204 -0.1465
 8778SOL    HW127775   5.212   3.356   6.758  0.1362 -0.3467  0.1975
 8778SOL    HW227776   5.256   3.232   6.684 -0.7692  0.0701 -1.0721
 8779SOL     OW27777   2.900   2.392   8.269  0.4715 -0.1972 -0.2779
 8779SOL    HW127778   2.877   2.308   8.229 -0.4370  0.5612 -1.4250
 8779SOL    HW227779   2.979   2.420   8.222 -0.0559  0.2505 -0.9200
 8780SOL     OW27780   7.073   3.506   4.075 -0.2098 -0.6043  0.0106
 8780SOL    HW127781   7.090   3.443   4.006  0.9370 -0.9484  0.5666
 8780SOL    HW227782   6.985   3.486   4.107 -1.9192  1.2558 -3.0650
 8781SOL     OW27783   7.902   7.071   0.717  0.1903 -0.5819 -0.0019
 8781SOL    HW127784   7.809   7.064   0.735  0.3398  0.7323  1.4290
 8781SOL    HW227785   7.939   6.988   0.749 -0.1659 -0.0659  1.8350
 8782SOL     OW27786   1.119   5.933   4.960 -0.4059  0.2708 -0.5794
 8782SOL    HW127787   1.160   6.004   5.010  1.0353 -0.9922  0.1321
 8782SOL    HW227788   1.062   5.889   5.024 -1.8977  1.2023 -1.2167
 8783SOL     OW27789   0.656   3.401   2.490 -0.2651  0.0816 -0.2103
 8783SOL    HW127790   0.576   3.360   2.458  1.1217 -0.5605 -3.1712
 8783SOL    HW227791   0.713   3.327   2.511 -0.0552  0.5439  0.9495
 8784SOL     OW27792   3.732   0.984   6.780  0.5469  0.3990  0.1842
 8784SOL    HW127793   3.731   0.938   6.865  0.2133  0.9605  0.4899
 8784SOL    HW227794   3.710   1.074   6.802 -2.0946  0.0566 -0.8024
 8785SOL     OW27795   7.219   5.749   5.364  0.4827 -0.3599  0.1991
 8785SOL    HW127796   7.256   5.711   5.444 -0.6354 -1.1498  0.3731
 8785SOL    HW227797   7.260   5.700   5.293  0.7416 -0.3340  0.3298
 8786SOL     OW27798   4.784   3.280   9.844  0.3192 -0.3091 -0.2684
 8786SOL    HW127799   4.707   3.332   9.823 -0.3553 -0.6261  1.3087
 8786SOL    HW227800   4.767   3.244   9.931  3.2577  1.5813  1.2652
 8787SOL     OW27801   4.612   0.744   3.201 -0.9556  0.2068 -0.4233
 8787SOL    HW127802   4.538   0.750   3.261 -1.8565  0.4437 -1.5414
 8787SOL    HW227803   4.591   0.669   3.144 -0.0622 -0.0832 -0.3898
 8788SOL     OW27804   1.920   1.184   2.334 -0.2810  0.1240 -0.2676
 8788SOL    HW127805   1.901   1.246   2.404  1.4405 -0.5633  0.8932
 8788SOL    HW227806   1.853   1.200   2.268 -2.0254  0.7641  1.5527
 8789SOL     OW27807   7.262   7.382   3.906 -0.3549  0.2860 -0.9931
 8789SOL    HW127808   7.252   7.477   3.914  0.8674  0.4934 -1.6082
 8789SOL    HW227809   7.303   7.370   3.820 -1.3897 -0.8706 -1.3445
 8790SOL     OW27810   0.757   4.488   5.828 -0.3583 -0.3143  0.4896
 8790SOL    HW127811   0.681   4.511   5.774  0.0872  0.8303  0.3170
 8790SOL    HW227812   0.819   4.448   5.767 -0.4533 -0.3977  0.4480
 8791SOL     OW27813   1.116   3.326   3.921 -0.2803  0.3029 -0.8164
 8791SOL    HW127814   1.103   3.268   3.846  0.8935 -0.4770 -0.4388
 8791SOL    HW227815   1.210   3.322   3.939 -0.3805  1.3328  0.0174
 8792SOL     OW27816   2.436   2.856  10.303  0.4902 -0.2087 -0.0623
 8792SOL    HW127817   2.447   2.919  10.374  1.1280  0.6169 -0.8719
 8792SOL    HW227818   2.521   2.814  10.295  0.6556  0.2450 -0.8234
 8793SOL     OW27819   4.224   3.171   8.442  0.1820 -0.1592  0.2049
 8793SOL    HW127820   4.310   3.157   8.403  0.9707  1.5379  1.2608
 8793SOL    HW227821   4.163   3.166   8.368  1.4075  0.7986 -0.9076
 8794SOL     OW27822   5.460   2.946   2.495 -0.1658 -0.6647 -0.1439
 8794SOL    HW127823   5.518   3.018   2.470  1.1383 -1.6017  0.0926
 8794SOL    HW227824   5.466   2.942   2.590 -0.4322 -0.9216 -0.1363
 8795SOL     OW27825   6.248   6.717  12.180  0.3020  0.0394 -0.4400
 8795SOL    HW127826   6.245   6.789  12.116  0.8796 -0.1588 -0.6931
 8795SOL    HW227827   6.281   6.642  12.131  0.8238 -0.0976  0.1078
 8796SOL     OW27828   0.538   3.409  10.115  0.7325 -0.1956  0.0353
 8796SOL    HW127829   0.533   3.316  10.093 -1.3783 -0.1236  0.0342
 8796SOL    HW227830   0.522   3.413  10.209 -0.5294  0.2386 -0.1799
 8797SOL     OW27831   7.259   4.374  10.339  0.2410 -0.0531 -0.0599
 8797SOL    HW127832   7.291   4.297  10.386  0.2064 -0.0876 -0.0912
 8797SOL    HW227833   7.335   4.405  10.290  0.4640  0.3952  0.5562
 8798SOL     OW27834   3.278   3.138   0.844  0.6034 -0.6430  0.1786
 8798SOL    HW127835   3.277   3.230   0.818  2.0610 -1.2823 -2.4755
 8798SOL    HW227836   3.360   3.128   0.893 -0.9359 -0.0075  3.1456
 8799SOL     OW27837   4.636   3.397   6.986 -0.7419  0.2759 -0.0017
 8799SOL    HW127838   4.708   3.456   6.967  0.5537 -1.0263  0.6503
 8799SOL    HW227839   4.562   3.455   7.006  0.1842  1.6422 -0.4042
 8800SOL     OW27840   2.826   3.472   7.377  0.5654  0.1857  0.0711
 8800SOL    HW127841   2.891   3.541   7.364  0.3065  0.2476 -0.9852
 8800SOL    HW227842   2.742   3.518   7.382  0.4481 -0.0026 -0.1126
 8801SOL     OW27843   2.845   7.328   7.710  0.2074  0.4408 -0.0567
 8801SOL    HW127844   2.797   7.347   7.629 -1.3077  0.5106  0.8214
 8801SOL    HW227845   2.778   7.329   7.778  1.4094  0.0870  1.1688
 8802SOL     OW27846   4.317   3.473   9.975  0.2181 -0.5622 -0.1294
 8802SOL    HW127847   4.314   3.509   9.887 -0.0925 -1.2545 -0.4079
 8802SOL    HW227848   4.351   3.385   9.964 -1.0415 -1.1274  0.2689
 8803SOL     OW27849   1.233   2.875   6.152  0.0542 -0.0730 -0.1401
 8803SOL    HW127850   1.169   2.941   6.125  0.8920  1.8223  2.2153
 8803SOL    HW227851   1.314   2.924   6.166  1.4918 -2.0789 -0.9427
 8804SOL     OW27852   7.218   2.069   6.698  0.2684 -0.2980  0.6213
 8804SOL    HW127853   7.173   2.140   6.742 -0.7973  0.1657 -1.1268
 8804SOL    HW227854   7.311   2.086   6.712 -0.0145 -0.3208  2.8292
 8805SOL     OW27855   1.028   7.596  12.273 -0.1388 -0.2497  0.3405
 8805SOL    HW127856   0.939   7.564  12.253 -0.3339  0.2975  0.3243
 8805SOL    HW227857   1.037   7.584  12.367 -1.3791  2.4862  0.8878
 8806SOL     OW27858   1.454   6.733   8.299  0.3188  0.6649 -0.3192
 8806SOL    HW127859   1.509   6.708   8.373  0.3933 -1.5668 -1.0505
 8806SOL    HW227860   1.416   6.817   8.324  2.7242  1.4780  0.9325
 8807SOL     OW27861   4.521   0.986   2.161 -0.3960  0.1500 -0.0610
 8807SOL    HW127862   4.447   0.959   2.107 -0.4872  0.4043 -0.0681
 8807SOL    HW227863   4.488   0.981   2.251  0.1289 -1.4299  0.0643
 8808SOL     OW27864   0.034   6.715  12.295 -0.0139  0.1734 -0.6794
 8808SOL    HW127865   0.016   6.767  12.216  1.6712  1.6154 -0.1825
 8808SOL    HW227866  -0.037   6.651  12.298 -2.0581  2.2579 -1.5100
 8809SOL     OW27867   4.674   5.184  10.167  0.6496  0.1665 -0.0153
 8809SOL    HW127868   4.621   5.251  10.123  2.6034  0.9194 -1.3323
 8809SOL    HW227869   4.609   5.124  10.205 -1.1537  2.0590  0.1103
 8810SOL     OW27870   4.957   2.956   3.810  0.2145 -0.6175 -0.9419
 8810SOL    HW127871   4.923   2.867   3.810  0.3585 -0.7153  1.0187
 8810SOL    HW227872   4.881   3.010   3.831 -0.1742 -0.0730 -3.3928
 8811SOL     OW27873   0.024   7.648   2.428  0.3739 -0.0477  0.3654
 8811SOL    HW127874   0.104   7.660   2.377  0.6715  0.0312  0.8412
 8811SOL    HW227875   0.033   7.561   2.468  0.7691  0.4355  1.3589
 8812SOL     OW27876   4.147   6.203  10.573 -0.0401  0.3524  0.1998
 8812SOL    HW127877   4.128   6.125  10.521  0.8095  0.2990 -0.0326
 8812SOL    HW227878   4.093   6.192  10.652 -1.6804  0.6472 -0.8230
 8813SOL     OW27879   0.583   5.083   6.823 -0.0496  0.4462 -0.0081
 8813SOL    HW127880   0.513   5.050   6.767  0.8759 -0.8424 -0.4660
 8813SOL    HW227881   0.540   5.141   6.885 -1.4342  0.1119 -0.6322
 8814SOL     OW27882   7.494   6.098  11.252  0.2168 -0.4476 -0.1100
 8814SOL    HW127883   7.422   6.160  11.242  1.4532  1.4495  1.7935
 8814SOL    HW227884   7.560   6.128  11.190  0.0923 -1.0544 -0.5419
 8815SOL     OW27885   6.981   5.282   0.067 -0.2427 -0.0031  0.0948
 8815SOL    HW127886   7.036   5.359   0.053 -1.5570  0.7875 -1.0472
 8815SOL    HW227887   6.933   5.301   0.147 -0.1072  0.1009  0.1510
 8816SOL     OW27888   1.780   1.889   6.125 -0.2720  0.0850  0.3204
 8816SOL    HW127889   1.826   1.967   6.095 -1.4132  0.9048  0.6273
 8816SOL    HW227890   1.714   1.922   6.187  0.7396 -1.3372  2.2831
 8817SOL     OW27891   1.070   1.049   1.628 -0.1623  0.4331  0.1155
 8817SOL    HW127892   0.979   1.063   1.655 -1.2313  0.0235 -2.8616
 8817SOL    HW227893   1.100   1.135   1.599  0.4028  0.5391  0.9639
 8818SOL     OW27894   1.944   0.932   7.545  0.5447  0.0423  0.0326
 8818SOL    HW127895   1.925   0.852   7.594  0.0628 -0.1103 -0.3856
 8818SOL    HW227896   2.017   0.973   7.591  0.7749 -0.6254  0.2696
 8819SOL     OW27897   6.951   6.351   2.025  0.2174  0.0235 -0.4628
 8819SOL    HW127898   6.972   6.271   1.976  0.1152 -0.1663 -0.1998
 8819SOL    HW227899   6.987   6.422   1.971  2.5778 -0.3432  0.4916
 8820SOL     OW27900   5.983   3.803   8.575 -0.2142 -0.3830  0.1802
 8820SOL    HW127901   5.969   3.787   8.668  1.5932  1.5286  0.8672
 8820SOL    HW227902   5.924   3.742   8.531 -1.5272 -0.9681  2.5592
 8821SOL     OW27903   5.991   5.697   8.760 -0.0653  0.1334  0.3475
 8821SOL    HW127904   5.953   5.709   8.673  0.6592  0.7717  0.1081
 8821SOL    HW227905   5.962   5.774   8.809 -0.4759 -0.2267  0.6830
 8822SOL     OW27906   0.631   0.597   8.470  0.3453 -0.0582  0.2309
 8822SOL    HW127907   0.613   0.646   8.390 -1.4199 -0.4730  0.3393
 8822SOL    HW227908   0.646   0.507   8.441 -0.9355 -0.3406  0.3899
 8823SOL     OW27909   6.858   5.575   2.064  0.4604 -0.1699 -0.6095
 8823SOL    HW127910   6.941   5.544   2.099 -0.8378 -2.3670  0.7582
 8823SOL    HW227911   6.791   5.525   2.111 -1.7395  2.4343 -0.6531
 8824SOL     OW27912   7.420   1.833   7.634 -0.3818  0.1670 -0.0326
 8824SOL    HW127913   7.395   1.921   7.662 -0.0703  0.5852 -1.0335
 8824SOL    HW227914   7.505   1.844   7.592 -0.1127 -0.6938  0.2644
 8825SOL     OW27915   0.717   4.790   7.990 -0.0501 -0.0938  0.1051
 8825SOL    HW127916   0.736   4.830   7.905  0.9158  1.0550  0.8293
 8825SOL    HW227917   0.686   4.702   7.969 -1.2017  0.6386 -1.4959
 8826SOL     OW27918   1.398   1.660  11.955 -0.3766  0.4542  0.3633
 8826SOL    HW127919   1.474   1.668  11.898 -0.2463  2.0850  0.7154
 8826SOL    HW227920   1.411   1.577  12.001 -0.9388 -1.3797 -2.5289
 8827SOL     OW27921   3.173   4.042  11.885 -0.1992  0.2813  0.3089
 8827SOL    HW127922   3.098   3.994  11.920  0.4855 -1.6840 -0.7202
 8827SOL    HW227923   3.236   4.043  11.957 -0.3836 -0.0085  0.4790
 8828SOL     OW27924   7.129   0.434   6.999  0.0368 -0.2056  0.0324
 8828SOL    HW127925   7.210   0.435   6.948  0.8969 -1.3979  1.3258
 8828SOL    HW227926   7.139   0.505   7.062  0.3954 -0.8068  0.6584
 8829SOL     OW27927   1.999   6.715   1.845 -0.1965  0.0365  0.2602
 8829SOL    HW127928   2.080   6.759   1.869 -0.3470 -0.3821  1.6392
 8829SOL    HW227929   1.982   6.744   1.755  1.8367 -0.4262 -0.3331
 8830SOL     OW27930   5.690   0.091   5.156  0.0501 -0.3236 -0.1385
 8830SOL    HW127931   5.686   0.184   5.180 -0.7187 -0.1303 -0.9217
 8830SOL    HW227932   5.649   0.045   5.229 -0.8050  0.0908 -0.3423
 8831SOL     OW27933   1.790   2.427   9.392  0.1993 -0.1302 -0.3390
 8831SOL    HW127934   1.706   2.402   9.431 -0.2757 -0.5690 -1.6038
 8831SOL    HW227935   1.821   2.348   9.348  0.8665  0.2618 -0.5859
 8832SOL     OW27936   5.255   2.726   5.788 -0.2643 -0.6885  0.5170
 8832SOL    HW127937   5.221   2.801   5.740  1.1602 -0.1058  0.3702
 8832SOL    HW227938   5.295   2.671   5.722  0.4967 -0.5553  0.8536
 8833SOL     OW27939   1.849   1.090   9.664 -0.0645 -0.7474  0.3013
 8833SOL    HW127940   1.869   1.017   9.723 -0.6765 -0.3565  1.0143
 8833SOL    HW227941   1.769   1.062   9.618 -0.0607 -0.7052  0.2690
 8834SOL     OW27942   5.523   2.122   3.662  0.2044 -0.1485 -0.0464
 8834SOL    HW127943   5.443   2.175   3.659 -0.6084 -1.3606 -0.4975
 8834SOL    HW227944   5.584   2.168   3.605 -0.4234  0.3859 -0.3092
 8835SOL     OW27945   4.074   5.567  10.204  0.0620 -0.1248 -0.6478
 8835SOL    HW127946   4.074   5.662  10.197  0.9989 -0.0217  0.5111
 8835SOL    HW227947   4.030   5.548  10.287 -0.2435 -0.7152 -0.9326
 8836SOL     OW27948   0.702   1.711   4.015  0.0214 -0.0614  0.7181
 8836SOL    HW127949   0.655   1.635   3.981 -0.1413 -0.4376  1.7490
 8836SOL    HW227950   0.674   1.718   4.107 -1.8635  2.6820  0.0833
 8837SOL     OW27951   6.271   0.404   8.239 -0.0737 -0.2753  0.0085
 8837SOL    HW127952   6.325   0.382   8.315  0.0670  2.2584  0.7078
 8837SOL    HW227953   6.334   0.431   8.172 -0.3389  0.3500  0.0083
 8838SOL     OW27954   1.450   0.396   1.445  0.3513 -0.3360 -0.0700
 8838SOL    HW127955   1.441   0.457   1.519  0.9357  0.6503 -0.7808
 8838SOL    HW227956   1.385   0.426   1.381 -1.2612 -2.1423  0.6286
 8839SOL     OW27957   4.821   6.493   3.077  0.0131 -0.0983 -0.5892
 8839SOL    HW127958   4.763   6.418   3.061 -0.3537  0.0316  0.1128
 8839SOL    HW227959   4.891   6.482   3.012 -0.6550 -0.3942 -1.2819
 8840SOL     OW27960   3.242   4.672   1.797  0.3483  0.3001 -0.0061
 8840SOL    HW127961   3.268   4.617   1.871  1.4812  1.4616  0.5001
 8840SOL    HW227962   3.292   4.639   1.723 -0.5606 -0.6739 -0.1976
 8841SOL     OW27963   6.260   3.566   2.467 -0.7707  0.0032 -0.2079
 8841SOL    HW127964   6.219   3.517   2.538 -0.5323 -0.5178 -0.4151
 8841SOL    HW227965   6.349   3.583   2.498  0.1336 -2.2754 -1.2488
 8842SOL     OW27966   5.620   2.513   5.922  0.0294 -0.5703  0.0498
 8842SOL    HW127967   5.604   2.456   5.997  0.4872 -0.9727 -0.1515
 8842SOL    HW227968   5.554   2.487   5.858 -0.5914  0.0182  0.4387
 8843SOL     OW27969   2.233   4.375   4.564  0.3465 -0.1028  0.7516
 8843SOL    HW127970   2.187   4.321   4.500 -0.9848 -0.2302  1.7624
 8843SOL    HW227971   2.213   4.465   4.539  2.5645  0.0210 -0.9321
 8844SOL     OW27972   0.113   3.646   3.908 -0.1484 -0.2386  0.1608
 8844SOL    HW127973   0.103   3.646   4.003 -0.1591  0.7325  0.1767
 8844SOL    HW227974   0.207   3.635   3.893  0.2299  2.0222  0.3971
 8845SOL     OW27975   1.649   5.735   1.724  0.0857  0.1110 -0.2838
 8845SOL    HW127976   1.635   5.649   1.764 -2.0932  0.4964 -0.0795
 8845SOL    HW227977   1.631   5.721   1.631  0.5396  0.1817 -0.3839
 8846SOL     OW27978   6.933   1.466   1.173  0.0547  0.4268  0.1251
 8846SOL    HW127979   6.978   1.412   1.108 -0.6025 -0.7517  0.6068
 8846SOL    HW227980   7.000   1.484   1.240 -0.0210 -0.8815  0.5860
 8847SOL     OW27981   7.808   0.568  10.401 -0.1860  0.4340 -0.3395
 8847SOL    HW127982   7.833   0.660  10.408  0.7180  0.0779  1.7435
 8847SOL    HW227983   7.889   0.519  10.415 -0.6794 -0.7170 -1.2352
 8848SOL     OW27984   5.068   2.657   9.829  0.0939  0.3566 -0.0509
 8848SOL    HW127985   5.136   2.678   9.765 -1.2463  1.6928 -1.1016
 8848SOL    HW227986   4.992   2.708   9.801 -1.0610 -0.3494  1.6395
 8849SOL     OW27987   5.469   2.570  12.191  0.0165 -0.1589 -0.3596
 8849SOL    HW127988   5.378   2.540  12.187  0.0699 -0.1619 -3.2719
 8849SOL    HW227989   5.500   2.542  12.278 -2.6492 -0.3541  0.6038
 8850SOL     OW27990   5.915   6.022   4.729  0.1174 -0.7219  0.0133
 8850SOL    HW127991   6.007   5.997   4.729  0.2459 -0.3101  1.0771
 8850SOL    HW227992   5.911   6.097   4.670  1.1048  1.3103  2.3642
 8851SOL     OW27993   1.145   5.611   5.900 -0.4106 -0.0981 -0.5285
 8851SOL    HW127994   1.189   5.689   5.865  0.2026  0.5262  1.5017
 8851SOL    HW227995   1.103   5.641   5.980 -0.7091 -1.7283 -0.0466
 8852SOL     OW27996   1.801   6.229   8.717 -0.0009 -0.3238  0.3926
 8852SOL    HW127997   1.813   6.168   8.790  0.3255 -1.2532 -0.4099
 8852SOL    HW227998   1.726   6.193   8.668  1.6578 -1.4934 -1.4253
 8853SOL     OW27999   7.961   7.878   9.835 -0.2712 -0.1072 -0.4584
 8853SOL    HW128000   7.916   7.818   9.894  1.6861 -2.3102 -1.0691
 8853SOL    HW228001   7.972   7.958   9.886 -0.3451 -1.2696  1.4668
 8854SOL     OW28002   5.375   3.572   4.176  0.1617 -0.3172  0.0462
 8854SOL    HW128003   5.433   3.496   4.169  0.1472 -0.4734  1.5111
 8854SOL    HW228004   5.301   3.550   4.119  0.1292 -1.4199  0.4915
 8855SOL     OW28005   1.686   7.341   4.930  0.2554  0.0866 -0.0909
 8855SOL    HW128006   1.671   7.430   4.897  0.4368 -0.4919 -1.8673
 8855SOL    HW228007   1.751   7.305   4.870  0.2132 -1.2393  0.6368
 8856SOL     OW28008   5.061   2.220   7.553  0.3608 -0.5005  0.0547
 8856SOL    HW128009   5.019   2.268   7.482  0.4273  0.6331  0.7594
 8856SOL    HW228010   5.121   2.160   7.509  0.1074 -0.1020 -0.8611
 8857SOL     OW28011   1.982   5.467  10.502  0.0666  0.8793 -0.2273
 8857SOL    HW128012   1.962   5.403  10.434 -3.3330  1.4496  0.0447
 8857SOL    HW228013   2.049   5.523  10.463  0.8193 -0.9130 -1.6664
 8858SOL     OW28014   7.062   2.992   5.933 -0.5769  0.0733  0.1142
 8858SOL    HW128015   7.057   2.903   5.900  0.3800 -0.5319  1.5418
 8858SOL    HW228016   6.977   3.007   5.974 -0.2195 -0.7403  1.1924
 8859SOL     OW28017   7.205   6.216  12.357  0.4156 -0.5374  0.5768
 8859SOL    HW128018   7.292   6.201  12.321 -0.1541  1.0366 -1.6754
 8859SOL    HW228019   7.156   6.258  12.286 -1.8267 -0.2471  2.1680
 8860SOL     OW28020   4.427   2.490   7.263 -0.4904  0.1540  0.5923
 8860SOL    HW128021   4.403   2.510   7.353  1.3138  0.0508  1.1429
 8860SOL    HW228022   4.513   2.449   7.270  0.1433  1.0434 -1.2460
 8861SOL     OW28023   1.069   3.740   9.936  0.0446 -0.0006 -0.4197
 8861SOL    HW128024   1.157   3.703   9.931 -0.7960 -2.0717 -1.1483
 8861SOL    HW228025   1.012   3.672   9.899 -1.9910  0.8422  0.9590
 8862SOL     OW28026   7.175   1.801   7.800 -0.2577  0.3157 -0.1313
 8862SOL    HW128027   7.257   1.850   7.807  1.6924 -2.7746  0.4494
 8862SOL    HW228028   7.152   1.807   7.707  1.3929  0.1019 -0.5890
 8863SOL     OW28029   4.350   6.826   4.885 -1.0067 -0.0564 -0.5573
 8863SOL    HW128030   4.363   6.803   4.793 -0.6288  0.0902 -0.5424
 8863SOL    HW228031   4.436   6.813   4.926 -1.0671  0.2875 -0.3143
 8864SOL     OW28032   2.672   2.689  10.321  0.3003 -0.5727  0.2044
 8864SOL    HW128033   2.752   2.742  10.318 -0.7693  1.1845  1.0428
 8864SOL    HW228034   2.675   2.636  10.241  0.2858  2.5307 -2.0285
 8865SOL     OW28035   0.081   5.358  11.760 -0.0934 -0.3420 -0.2445
 8865SOL    HW128036   0.049   5.361  11.670 -1.4395  0.2893  0.2313
 8865SOL    HW228037   0.006   5.385  11.813  0.9266  0.1341  1.0076
 8866SOL     OW28038   4.077   0.846   7.897 -0.0915  0.1359 -0.0206
 8866SOL    HW128039   4.081   0.838   7.992  1.7103  1.5471  0.0689
 8866SOL    HW228040   4.133   0.776   7.864  0.3946  0.5033  0.0189
 8867SOL     OW28041   1.424   2.860   3.481 -0.3287  0.3130 -0.4418
 8867SOL    HW128042   1.407   2.862   3.575  2.5737 -0.3978  0.1892
 8867SOL    HW228043   1.356   2.804   3.445 -1.3529  0.3963  1.2674
 8868SOL     OW28044   6.386   3.410   7.405 -0.2111 -0.3719 -0.0758
 8868SOL    HW128045   6.418   3.339   7.349 -0.8484  0.1638 -1.1462
 8868SOL    HW228046   6.314   3.371   7.454 -0.0316 -0.6852 -0.0525
 8869SOL     OW28047   5.501   2.491   8.336 -0.0524  0.2812 -0.0206
 8869SOL    HW128048   5.549   2.563   8.377  1.1533 -1.0669  1.0777
 8869SOL    HW228049   5.567   2.443   8.286 -0.9668  0.2883 -1.2861
 8870SOL     OW28050   0.568   2.340   9.168 -0.6687  0.2501  0.4653
 8870SOL    HW128051   0.572   2.335   9.073  2.1334  1.6275  0.3902
 8870SOL    HW228052   0.532   2.427   9.187 -0.9111  0.1110  0.6463
 8871SOL     OW28053   0.731   0.797  11.700 -0.6201 -0.1405 -0.1720
 8871SOL    HW128054   0.685   0.733  11.646 -0.0012 -0.1822 -0.6600
 8871SOL    HW228055   0.662   0.856  11.730 -1.1027 -0.6512 -0.2583
 8872SOL     OW28056   4.992   3.429   6.172  0.1908  0.5111  0.0691
 8872SOL    HW128057   4.946   3.511   6.190  0.5316  0.7141  0.0172
 8872SOL    HW228058   5.019   3.397   6.258  1.8664  1.5090 -0.0494
 8873SOL     OW28059   7.498   3.386   6.694 -0.0049 -0.0434  0.4421
 8873SOL    HW128060   7.578   3.339   6.716 -0.3711  0.2456  2.5749
 8873SOL    HW228061   7.518   3.478   6.712 -0.8028  0.0307  0.9847
 8874SOL     OW28062   1.521   0.755  10.750 -0.0731 -0.1172  0.0328
 8874SOL    HW128063   1.433   0.792  10.749 -0.0645 -0.0928  0.1812
 8874SOL    HW228064   1.538   0.735  10.842  0.9936  2.0580  0.3703
 8875SOL     OW28065   7.140   3.388   1.545  0.0818 -0.3574  0.4149
 8875SOL    HW128066   7.184   3.311   1.508  0.7754  0.2690 -0.0920
 8875SOL    HW228067   7.176   3.462   1.496  0.4607  0.4394  1.8406
 8876SOL     OW28068   4.101   1.230   4.854  0.4199 -0.3270 -0.2856
 8876SOL    HW128069   4.118   1.256   4.945 -1.5737 -0.4138  0.1673
 8876SOL    HW228070   4.020   1.276   4.831 -0.5461 -2.2922 -1.1150
 8877SOL     OW28071   7.794   4.158  10.849 -0.2055  0.0509 -0.4762
 8877SOL    HW128072   7.883   4.188  10.863 -0.0722 -0.0311 -1.1027
 8877SOL    HW228073   7.803   4.063  10.836 -0.6200 -0.3012  1.5040
 8878SOL     OW28074   0.706   5.797   5.109 -0.6732  0.0706 -0.4553
 8878SOL    HW128075   0.793   5.760   5.096 -0.5506  0.2607 -0.1897
 8878SOL    HW228076   0.708   5.833   5.198 -1.5469 -1.4118  0.2048
 8879SOL     OW28077   2.330   5.327   6.605  0.4784 -0.2246  0.0354
 8879SOL    HW128078   2.413   5.281   6.590 -1.1709 -3.1918 -0.7894
 8879SOL    HW228079   2.299   5.349   6.517 -1.2704 -2.4948 -0.0074
 8880SOL     OW28080   0.603   5.670   4.435  0.0101  0.4524  0.2611
 8880SOL    HW128081   0.690   5.687   4.471  0.7710 -0.6698 -0.9530
 8880SOL    HW228082   0.550   5.649   4.511  0.9719  0.5036  0.9714
 8881SOL     OW28083   1.453   2.218  12.094  0.2660  0.1308  0.5094
 8881SOL    HW128084   1.549   2.216  12.091  0.2401  0.0035 -1.2108
 8881SOL    HW228085   1.428   2.273  12.020 -1.0208 -1.4603 -0.3040
 8882SOL     OW28086   0.647   6.599   0.390  0.1895  0.0900 -0.2204
 8882SOL    HW128087   0.709   6.631   0.325 -1.5576  1.4282 -1.3502
 8882SOL    HW228088   0.655   6.504   0.387  0.9229  0.1732 -1.6289
 8883SOL     OW28089   1.782   2.411   9.826  0.1883  0.3002  0.0737
 8883SOL    HW128090   1.807   2.482   9.766 -0.2117 -0.1583 -0.6339
 8883SOL    HW228091   1.797   2.331   9.776 -0.5875 -0.0688  0.4253
 8884SOL     OW28092   3.922   4.608   2.134 -0.1176  0.2098  0.1389
 8884SOL    HW128093   3.878   4.543   2.078  0.2971  0.1624 -0.1358
 8884SOL    HW228094   4.010   4.617   2.096  0.0983  0.3315  0.6651
 8885SOL     OW28095   0.993   1.073   2.652 -0.1148  0.7219  0.0748
 8885SOL    HW128096   0.953   1.125   2.722 -2.8661 -1.3865  0.2260
 8885SOL    HW228097   0.959   1.111   2.571 -0.7656  0.2523  0.1183
 8886SOL     OW28098   6.102   4.251   6.291 -0.4540 -0.3670  0.0654
 8886SOL    HW128099   6.011   4.275   6.273 -0.0881  1.1524  0.1037
 8886SOL    HW228100   6.135   4.322   6.347  0.9402 -0.5536 -0.4729
 8887SOL     OW28101   1.850   5.368   1.066 -0.3685  0.0162 -0.1821
 8887SOL    HW128102   1.780   5.417   1.022  0.9431  1.3282 -0.9082
 8887SOL    HW228103   1.845   5.395   1.157  0.0950  1.2588 -0.5048
 8888SOL     OW28104   7.907   6.866  11.502 -0.1295  0.3403  0.1427
 8888SOL    HW128105   7.858   6.930  11.553 -0.3144 -0.4385  0.9596
 8888SOL    HW228106   7.905   6.786  11.554 -0.0267 -0.3843 -0.9223
 8889SOL     OW28107   0.979   3.854  11.305 -1.2935  0.5077  0.0492
 8889SOL    HW128108   0.910   3.912  11.272 -1.7753  0.2627  0.5962
 8889SOL    HW228109   0.939   3.767  11.305 -0.3993  0.0710 -1.2646
 8890SOL     OW28110   2.744   6.682   0.161 -0.2321 -0.1834  0.4270
 8890SOL    HW128111   2.794   6.759   0.134  0.5325 -1.3228 -1.5389
 8890SOL    HW228112   2.780   6.660   0.247  0.0636  1.1649  0.6850
 8891SOL     OW28113   3.903   5.094   2.496  0.3043  0.0304 -0.8777
 8891SOL    HW128114   3.981   5.049   2.462  1.1655  1.3043 -0.6696
 8891SOL    HW228115   3.902   5.177   2.449 -0.7372  0.1846 -0.5999
 8892SOL     OW28116   1.664   5.943   6.582 -0.6092  0.4866  0.2430
 8892SOL    HW128117   1.753   5.907   6.585 -1.2137 -1.2042 -0.7351
 8892SOL    HW228118   1.656   5.982   6.495 -1.2065 -0.5039 -0.1653
 8893SOL     OW28119   6.809   7.964   1.406 -0.1952  0.1113  0.2403
 8893SOL    HW128120   6.734   7.908   1.390  0.3950 -1.3654  2.1965
 8893SOL    HW228121   6.826   8.006   1.322 -0.0276 -3.4657 -1.7296
 8894SOL     OW28122   7.540   0.541   0.585 -0.5711  0.2341  0.6883
 8894SOL    HW128123   7.492   0.551   0.502 -1.8333 -0.4377  1.3034
 8894SOL    HW228124   7.514   0.618   0.636  0.4273  0.7942  0.3723
 8895SOL     OW28125   1.012   6.839  10.554 -0.3304 -0.1628  0.0103
 8895SOL    HW128126   0.986   6.876  10.638  1.1364  0.4407  0.2184
 8895SOL    HW228127   0.929   6.819  10.510 -1.1192  0.2217  1.2707
 8896SOL     OW28128   0.657   6.125   0.772 -0.0641  0.1561  0.2036
 8896SOL    HW128129   0.613   6.210   0.774  0.0383  0.2334 -0.5696
 8896SOL    HW228130   0.615   6.078   0.699  0.3140 -0.2146  0.2218
 8897SOL     OW28131   2.547   2.843   2.039 -0.1775  0.1139  0.5256
 8897SOL    HW128132   2.562   2.937   2.035 -0.9441  0.2219 -0.1608
 8897SOL    HW228133   2.613   2.806   1.980  0.0705  0.2239  0.7312
 8898SOL     OW28134   6.055   1.598   9.032 -0.5168  0.5103 -0.3784
 8898SOL    HW128135   6.108   1.548   9.094 -1.5685  0.0310  0.1720
 8898SOL    HW228136   6.099   1.588   8.948  0.3438  0.2666  0.0965
 8899SOL     OW28137   1.142   7.320   8.983  0.1908  0.1662  0.2473
 8899SOL    HW128138   1.068   7.345   9.038  0.0964  0.2792  0.0685
 8899SOL    HW228139   1.103   7.289   8.902  0.3399  0.2779  0.1315
 8900SOL     OW28140   6.183   4.293   0.570  0.3204 -0.1741  0.1403
 8900SOL    HW128141   6.138   4.253   0.645  1.8344 -0.5373  0.9025
 8900SOL    HW228142   6.260   4.334   0.609  0.2358  1.1382 -1.0115
 8901SOL     OW28143   6.677   1.426   3.781  0.5093 -0.2795  0.0500
 8901SOL    HW128144   6.635   1.419   3.696 -0.6162 -1.8508  0.6924
 8901SOL    HW228145   6.689   1.520   3.795 -1.0629  0.1066 -0.9875
 8902SOL     OW28146   6.480   2.661   2.033 -0.4550 -0.2361  0.8300
 8902SOL    HW128147   6.545   2.602   2.072  0.5677 -2.0661 -3.1304
 8902SOL    HW228148   6.396   2.624   2.058  0.1066 -0.8730  1.8399
 8903SOL     OW28149   3.601   0.483   4.283 -0.0953 -0.1000  0.8582
 8903SOL    HW128150   3.635   0.555   4.231 -0.2467  0.3117  1.3206
 8903SOL    HW228151   3.662   0.411   4.267  0.6686  0.4515  1.2362
 8904SOL     OW28152   3.074   7.304  10.668  0.5270  0.0272  0.0511
 8904SOL    HW128153   3.154   7.348  10.696  0.0422  0.7806  0.2822
 8904SOL    HW228154   3.004   7.362  10.695 -0.2100 -1.3425  1.2499
 8905SOL     OW28155   2.008   7.801   9.558 -0.1432  0.4003  0.3847
 8905SOL    HW128156   1.993   7.870   9.622 -0.6374  2.3149 -1.6868
 8905SOL    HW228157   2.103   7.789   9.558 -0.1555  0.1685  1.6214
 8906SOL     OW28158   5.986   3.585   1.961  0.3415 -0.3676 -0.0156
 8906SOL    HW128159   6.061   3.526   1.961  1.3472  0.7937 -2.0066
 8906SOL    HW228160   5.958   3.588   1.869 -2.8394 -1.5270  0.7731
 8907SOL     OW28161   4.144   6.642   0.278  0.2834  0.0818 -0.1569
 8907SOL    HW128162   4.089   6.578   0.232 -0.5020 -0.2091  1.1206
 8907SOL    HW228163   4.082   6.708   0.308  0.4968 -0.5823  1.8791
 8908SOL     OW28164   1.701   3.975   1.792 -0.5784  0.0114 -0.0325
 8908SOL    HW128165   1.699   3.882   1.817  1.9222  0.2745  1.5881
 8908SOL    HW228166   1.675   3.975   1.700  2.6156 -2.8515 -1.1956
 8909SOL     OW28167   4.250   2.726  10.828  0.3336 -0.6345 -0.4295
 8909SOL    HW128168   4.275   2.634  10.826  1.4397 -0.3361 -0.6507
 8909SOL    HW228169   4.331   2.773  10.848 -0.6123  0.1462  1.9369
 8910SOL     OW28170   2.006   0.599   9.777 -0.2937 -0.5667 -0.6819
 8910SOL    HW128171   2.078   0.583   9.716  0.0168  1.3244 -0.8786
 8910SOL    HW228172   1.927   0.600   9.723  0.1283  2.7678 -1.4924
 8911SOL     OW28173   1.905   7.744   0.319 -0.4762 -0.1577  0.7835
 8911SOL    HW128174   1.829   7.802   0.323 -1.2924 -1.2773  2.5518
 8911SOL    HW228175   1.948   7.755   0.404  1.2547  0.2739 -0.0918
 8912SOL     OW28176   1.987   6.478   3.535  0.0114 -0.6216 -0.0741
 8912SOL    HW128177   2.010   6.498   3.626  0.3159  1.4587 -0.5521
 8912SOL    HW228178   2.071   6.465   3.491 -0.0199  0.2399 -0.4173
 8913SOL     OW28179   6.601   2.501   0.126  0.0002 -0.0903 -0.1262
 8913SOL    HW128180   6.563   2.562   0.188  0.2106 -0.9424  0.8636
 8913SOL    HW228181   6.595   2.546   0.041 -0.1610  1.1389  0.5192
 8914SOL     OW28182   3.311   0.816   7.790  0.1991  0.0957  0.0804
 8914SOL    HW128183   3.275   0.842   7.875 -1.2022 -0.9092 -0.1692
 8914SOL    HW228184   3.234   0.791   7.738  0.9966  0.8985 -1.5732
 8915SOL     OW28185   0.188   2.219   9.549  0.4072 -0.5825  0.0017
 8915SOL    HW128186   0.278   2.222   9.518  0.7111 -1.9402  0.6647
 8915SOL    HW228187   0.135   2.209   9.470  0.4002  4.0650 -0.8632
 8916SOL     OW28188   5.043   1.016  11.495 -0.0995 -0.0836 -0.5306
 8916SOL    HW128189   5.055   1.027  11.590  0.0382  0.7505 -0.6348
 8916SOL    HW228190   5.132   1.018  11.460 -0.2026  0.5004 -0.7623
 8917SOL     OW28191   2.186   2.626  12.167 -0.3784  0.0959  0.0204
 8917SOL    HW128192   2.117   2.687  12.193  0.7966  1.0752  1.0158
 8917SOL    HW228193   2.166   2.604  12.076 -1.1642  1.5442 -0.1862
 8918SOL     OW28194   2.310   4.804   3.371 -0.2883 -0.4420  0.1993
 8918SOL    HW128195   2.231   4.850   3.343 -0.3560 -0.1308  0.8762
 8918SOL    HW228196   2.353   4.778   3.290  0.1228  1.4493 -0.2547
 8919SOL     OW28197   3.022   5.596   6.214 -0.1342 -0.2644  0.1252
 8919SOL    HW128198   3.028   5.620   6.307 -1.7479  0.4783  0.0776
 8919SOL    HW228199   3.087   5.652   6.171 -0.2868  0.3312  0.6517
 8920SOL     OW28200   7.387   3.955   9.346 -0.3906 -0.4055 -0.5699
 8920SOL    HW128201   7.424   4.018   9.285 -0.9558 -0.4344 -0.9522
 8920SOL    HW228202   7.375   3.875   9.294  1.7585 -1.3525  0.2725
 8921SOL     OW28203   0.741   3.326  12.445  0.4255  0.2354  0.0082
 8921SOL    HW128204   0.703   3.348  12.359  1.2804  1.2529 -0.1356
 8921SOL    HW228205   0.706   3.240  12.465 -3.0277  1.5613  0.4720
 8922SOL     OW28206   3.546   1.551   8.528 -0.1492  0.3750  0.2518
 8922SOL    HW128207   3.584   1.629   8.568 -1.8447  2.1437 -1.3545
 8922SOL    HW228208   3.611   1.522   8.463  0.1649  0.9154  0.3267
 8923SOL     OW28209   4.775   5.833  11.209  0.4803 -0.3660 -0.0682
 8923SOL    HW128210   4.839   5.845  11.280 -0.4663 -0.0477  0.7505
 8923SOL    HW228211   4.825   5.792  11.139  1.3136 -1.2387  0.9974
 8924SOL     OW28212   3.988   3.290   8.342  0.3762  0.1909 -0.4885
 8924SOL    HW128213   3.942   3.357   8.394  0.1586 -0.9587  0.8564
 8924SOL    HW228214   4.027   3.339   8.270 -0.9663  1.5568 -0.3357
 8925SOL     OW28215   3.697   0.769   8.042  0.1738 -0.6257 -0.1743
 8925SOL    HW128216   3.738   0.690   8.079  0.5129 -0.0618  0.6981
 8925SOL    HW228217   3.630   0.736   7.983  0.6392 -1.5714 -0.1931
 8926SOL     OW28218   0.370   2.189   4.516 -0.5026 -0.0913  0.4364
 8926SOL    HW128219   0.280   2.176   4.547 -0.6094 -2.3411 -0.5681
 8926SOL    HW228220   0.407   2.254   4.575 -2.2310 -0.4565  2.0139
 8927SOL     OW28221   3.032   4.872   8.869 -0.4095  0.0184 -0.2384
 8927SOL    HW128222   2.976   4.802   8.902 -1.1659  0.3147 -0.8794
 8927SOL    HW228223   3.116   4.830   8.852 -0.5923 -0.5390  0.2357
 8928SOL     OW28224   1.893   3.890  11.324 -0.0543  0.2730 -0.1051
 8928SOL    HW128225   1.832   3.844  11.267 -0.8251  0.3188  0.6706
 8928SOL    HW228226   1.898   3.836  11.402  0.2393  0.7051  0.1799
 8929SOL     OW28227   4.382   5.240  11.909 -0.2702 -0.1562  0.3384
 8929SOL    HW128228   4.319   5.250  11.838 -0.8241 -1.3056  0.6482
 8929SOL    HW228229   4.344   5.173  11.966  0.6229  0.0549  1.2163
 8930SOL     OW28230   5.820   1.288  10.895 -1.0019 -0.5551  0.0636
 8930SOL    HW128231   5.821   1.247  10.982 -0.9821 -0.8160 -0.0583
 8930SOL    HW228232   5.907   1.270  10.859 -0.2594  1.3108  0.7932
 8931SOL     OW28233   3.598   1.735  11.334  0.2378 -0.1449 -0.6528
 8931SOL    HW128234   3.680   1.702  11.296  2.0494 -0.6561  3.2665
 8931SOL    HW228235   3.614   1.828  11.349  0.1924 -0.2950  0.3394
 8932SOL     OW28236   6.298   6.728   6.342  0.1927 -0.3193  0.2429
 8932SOL    HW128237   6.349   6.796   6.386  1.2879 -0.8677 -0.1347
 8932SOL    HW228238   6.286   6.660   6.408  0.1388 -0.2905  0.2630
 8933SOL     OW28239   6.046   1.800   7.310  0.8476  0.1987  0.2223
 8933SOL    HW128240   6.046   1.725   7.251 -2.1900 -0.7003  1.1314
 8933SOL    HW228241   5.993   1.866   7.266 -1.0424 -0.3029  1.6040
 8934SOL     OW28242   1.954   2.252  11.229  0.0569  0.1215  0.2189
 8934SOL    HW128243   2.041   2.290  11.220 -0.3829  1.5665  1.6313
 8934SOL    HW228244   1.950   2.184  11.162  1.4689  1.5125 -1.3474
 8935SOL     OW28245   7.597   0.100   9.213  0.1030 -0.1677  0.2782
 8935SOL    HW128246   7.528   0.091   9.278  0.7471 -0.9177  0.8719
 8935SOL    HW228247   7.678   0.087   9.261  0.6227 -0.2120 -0.5769
 8936SOL     OW28248   2.753   4.179   5.957  0.5663  0.3414  0.4022
 8936SOL    HW128249   2.799   4.097   5.975 -0.4872 -0.1683  0.8497
 8936SOL    HW228250   2.691   4.188   6.030  1.1486  1.9037  0.7550
 8937SOL     OW28251   5.721   3.979  11.077 -0.0794 -0.1833 -0.3854
 8937SOL    HW128252   5.671   4.022  11.008  1.4583  1.1997 -0.6815
 8937SOL    HW228253   5.658   3.969  11.149 -1.6180 -1.3460 -1.8075
 8938SOL     OW28254   1.638   3.690   4.437 -1.0070  0.4787 -0.1719
 8938SOL    HW128255   1.594   3.736   4.364 -1.1878 -0.0056 -0.3753
 8938SOL    HW228256   1.719   3.658   4.399 -0.7216  0.9095  0.0615
 8939SOL     OW28257   5.458   4.527   7.108  0.5606  0.1052 -0.5148
 8939SOL    HW128258   5.464   4.496   7.198  1.1533 -0.1815 -0.6463
 8939SOL    HW228259   5.441   4.448   7.056  2.6075 -0.1288 -0.9087
 8940SOL     OW28260   1.417   2.430   9.818 -0.1737 -0.5011  0.4429
 8940SOL    HW128261   1.391   2.345   9.854  0.9565 -1.1847 -0.3016
 8940SOL    HW228262   1.481   2.464   9.881 -0.5331 -0.2529  0.6763
 8941SOL     OW28263   0.682   6.258   2.754  0.0253  0.0881 -0.8685
 8941SOL    HW128264   0.692   6.173   2.797 -2.2893 -0.6098 -1.5627
 8941SOL    HW228265   0.771   6.284   2.733  1.2191 -0.1348  3.0691
 8942SOL     OW28266   2.038   6.732   8.049 -0.1464  0.6833 -0.6184
 8942SOL    HW128267   2.047   6.666   7.981 -1.4203 -0.0876 -0.0582
 8942SOL    HW228268   2.035   6.683   8.131 -1.0850  1.4292 -0.1889
 8943SOL     OW28269   7.327   3.004   5.897 -0.2992 -0.3248  0.4435
 8943SOL    HW128270   7.240   2.974   5.921 -0.7316 -0.9791 -1.7488
 8943SOL    HW228271   7.384   2.929   5.915 -0.5168 -0.6090 -0.0618
 8944SOL     OW28272   3.178   1.689   7.931 -0.3834 -0.1698  0.3670
 8944SOL    HW128273   3.143   1.773   7.960 -0.0582 -1.0812  3.7894
 8944SOL    HW228274   3.107   1.627   7.947 -0.0329 -0.8336 -0.5513
 8945SOL     OW28275   5.674   3.193   5.175 -0.0038 -0.1233  0.1742
 8945SOL    HW128276   5.658   3.225   5.264 -2.1582 -0.6330  0.0246
 8945SOL    HW228277   5.663   3.271   5.120  1.2010  0.1648  0.3145
 8946SOL     OW28278   4.502   0.767   7.534 -0.1232 -0.1991  0.8874
 8946SOL    HW128279   4.485   0.860   7.553  0.0098 -0.2315  1.1706
 8946SOL    HW228280   4.435   0.744   7.470  1.2757  0.7090 -0.9966
 8947SOL     OW28281   3.584   2.272   1.226 -0.3004 -0.3394  0.7557
 8947SOL    HW128282   3.623   2.353   1.194 -0.9086 -0.7285 -1.0877
 8947SOL    HW228283   3.656   2.226   1.271  1.3180 -0.8007 -2.0661
 8948SOL     OW28284   2.341   0.927   8.568  0.2373  0.4016 -0.4652
 8948SOL    HW128285   2.339   0.857   8.502  0.5395 -2.4685  2.3551
 8948SOL    HW228286   2.252   0.962   8.569 -0.4133 -1.1602 -0.7663
 8949SOL     OW28287   2.480   0.909   9.993 -0.1651 -0.2912 -0.2375
 8949SOL    HW128288   2.468   0.828  10.044 -2.0399  0.2165  0.2248
 8949SOL    HW228289   2.391   0.944   9.984  0.3634  0.6763 -2.1841
 8950SOL     OW28290   6.655   0.077  10.870 -0.4271  0.7496 -0.1835
 8950SOL    HW128291   6.731   0.072  10.812 -0.7928  2.1195 -0.8265
 8950SOL    HW228292   6.582   0.044  10.817 -0.6998  1.6908 -0.4245
 8951SOL     OW28293   0.364   7.935   2.452 -0.3020  0.5245 -0.2173
 8951SOL    HW128294   0.277   7.948   2.417 -0.5289 -0.1631  0.0662
 8951SOL    HW228295   0.354   7.943   2.547 -0.5623 -2.0149  0.0315
 8952SOL     OW28296   5.238   5.630  11.646 -0.4766  0.0033 -0.0464
 8952SOL    HW128297   5.205   5.683  11.574 -2.2994 -1.3791 -0.2926
 8952SOL    HW228298   5.180   5.554  11.649 -0.4704  0.0034  2.8885
 8953SOL     OW28299   1.463   1.225   3.386  0.6820  0.4592 -0.0165
 8953SOL    HW128300   1.508   1.145   3.359  1.3493  1.1820 -1.1609
 8953SOL    HW228301   1.508   1.253   3.465  1.3083  0.3854 -0.3383
 8954SOL     OW28302   1.215   2.721   0.488  0.4633  0.0527  0.3256
 8954SOL    HW128303   1.204   2.626   0.487  1.1443 -0.0394 -0.7890
 8954SOL    HW228304   1.236   2.744   0.397 -0.9281  1.4293  0.3035
 8955SOL     OW28305   2.584   1.700   9.987 -0.3478  0.6402 -0.0590
 8955SOL    HW128306   2.654   1.640   9.962 -0.7823 -0.1766  0.6457
 8955SOL    HW228307   2.627   1.763  10.045 -0.4538 -0.7461  1.6230
 8956SOL     OW28308   6.546   6.417   2.728 -0.1538  0.5056 -0.3395
 8956SOL    HW128309   6.611   6.421   2.799  0.1972  1.5015 -0.7014
 8956SOL    HW228310   6.577   6.347   2.671  0.6250  0.9695 -0.5106
 8957SOL     OW28311   6.925   5.877   2.095  0.4398 -0.4689  0.3380
 8957SOL    HW128312   6.947   5.931   2.170  0.0506  0.0337  0.0931
 8957SOL    HW228313   7.009   5.842   2.065  0.9044  1.1520 -0.3830
 8958SOL     OW28314   2.212   6.170   8.823 -0.0843  0.4675 -0.1267
 8958SOL    HW128315   2.294   6.130   8.795 -0.4725  0.4791 -1.2991
 8958SOL    HW228316   2.237   6.226   8.897  0.8434 -0.0581 -0.0279
 8959SOL     OW28317   6.545   7.088   4.479 -0.0510  0.5167  0.1914
 8959SOL    HW128318   6.472   7.110   4.536  0.0362 -0.0338  0.5205
 8959SOL    HW228319   6.508   7.027   4.415  0.0495  0.4659  0.1811
 8960SOL     OW28320   1.552   6.299   3.000 -0.0950  0.4631  0.0012
 8960SOL    HW128321   1.489   6.239   3.040  2.1448 -0.6253  2.1610
 8960SOL    HW228322   1.560   6.371   3.063  0.0251  1.1748 -0.8044
 8961SOL     OW28323   1.393   1.286   0.873 -0.0686  0.7013  0.1262
 8961SOL    HW128324   1.332   1.340   0.823  1.4487 -0.4159 -3.1909
 8961SOL    HW228325   1.360   1.196   0.863  0.8842  0.3327  0.2218
 8962SOL     OW28326   4.929   7.310   8.058 -0.1454  0.1159  0.4641
 8962SOL    HW128327   4.988   7.353   8.121  0.1102  0.7650 -0.2078
 8962SOL    HW228328   4.897   7.381   8.003  1.1912 -0.6710 -1.4161
 8963SOL     OW28329   6.681   2.372   5.890 -0.4481  0.1104 -0.2674
 8963SOL    HW128330   6.717   2.285   5.911 -1.2741 -0.6836 -1.9144
 8963SOL    HW228331   6.725   2.397   5.809  0.7856  1.8920  0.8975
 8964SOL     OW28332   7.540   1.327   4.760  0.0985  0.0006 -0.0555
 8964SOL    HW128333   7.624   1.357   4.793 -0.0874 -0.6959  1.0803
 8964SOL    HW228334   7.542   1.232   4.770  0.0469 -0.2720 -2.1065
 8965SOL     OW28335   3.303   3.893   1.700  0.2002  0.4882 -0.2800
 8965SOL    HW128336   3.376   3.953   1.713 -1.2185  2.3321 -0.3585
 8965SOL    HW228337   3.233   3.948   1.665 -2.1255 -0.6062  2.2867
 8966SOL     OW28338   4.728   6.561  11.235  0.6831  0.3921 -0.1271
 8966SOL    HW128339   4.680   6.507  11.171  0.1309  0.0498  0.5625
 8966SOL    HW228340   4.770   6.629  11.182 -1.0432  1.0530 -0.7286
 8967SOL     OW28341   5.333   3.267   9.327  0.5846  0.3451 -0.4476
 8967SOL    HW128342   5.428   3.272   9.329  0.5885  1.9288 -1.7814
 8967SOL    HW228343   5.310   3.279   9.234 -0.8823 -1.3949 -0.3628
 8968SOL     OW28344   4.009   4.401   5.895  0.2282  0.0630  0.0075
 8968SOL    HW128345   4.041   4.442   5.975  0.8700 -1.3140  0.5025
 8968SOL    HW228346   3.914   4.398   5.906  0.3720 -0.9903  1.2044
 8969SOL     OW28347   2.230   0.705  12.207  0.6268 -0.2139  0.4686
 8969SOL    HW128348   2.192   0.668  12.127  0.7933  1.6343 -0.5094
 8969SOL    HW228349   2.296   0.641  12.234  1.1851 -0.4725 -1.3947
 8970SOL     OW28350   5.535   5.159   5.746  0.0963  0.0463 -0.2434
 8970SOL    HW128351   5.486   5.089   5.788  1.1146 -0.8747 -0.5465
 8970SOL    HW228352   5.522   5.235   5.803 -1.1917 -0.3255 -0.0244
 8971SOL     OW28353   5.628   2.066  11.367  0.2884  0.4048 -0.1831
 8971SOL    HW128354   5.690   2.137  11.354 -0.0174  0.5542 -0.8689
 8971SOL    HW228355   5.554   2.105  11.414  0.6630  0.2476  0.5511
 8972SOL     OW28356   6.521   4.569   4.973 -0.2265 -0.8121 -0.5374
 8972SOL    HW128357   6.454   4.625   4.931  0.6548  0.3722 -0.4222
 8972SOL    HW228358   6.490   4.559   5.063  0.5526  1.1708  0.0100
 8973SOL     OW28359   5.587   1.603   7.925 -0.8908  0.1004  0.0670
 8973SOL    HW128360   5.505   1.562   7.899 -1.2801  0.4186  0.7633
 8973SOL    HW228361   5.655   1.550   7.884 -1.3881 -1.0143  0.6527
 8974SOL     OW28362   3.886   4.921   4.194 -0.3842  0.4246  0.5886
 8974SOL    HW128363   3.885   4.947   4.102 -0.1640  2.1793  1.0575
 8974SOL    HW228364   3.926   4.834   4.194 -1.1284  0.0469 -1.0438
 8975SOL     OW28365   3.903   6.824   6.310 -0.3524  0.4260 -0.3535
 8975SOL    HW128366   3.819   6.816   6.265  0.2386 -0.8595 -1.2581
 8975SOL    HW228367   3.967   6.837   6.241  0.1646  2.0237  0.3660
 8976SOL     OW28368   4.252   1.595   6.922 -0.1023 -0.0197 -0.2838
 8976SOL    HW128369   4.343   1.590   6.893 -0.6884 -0.4632 -2.2157
 8976SOL    HW228370   4.228   1.505   6.942  0.0856  0.1946  0.9781
 8977SOL     OW28371   2.178   2.046  12.292  0.3337  0.5263  0.2357
 8977SOL    HW128372   2.230   1.966  12.288 -1.6677 -0.7717 -2.0381
 8977SOL    HW228373   2.213   2.102  12.223 -1.1111 -0.3262 -1.2609
 8978SOL     OW28374   5.997   4.976   9.784  0.2421 -0.0764  0.4516
 8978SOL    HW128375   6.044   5.059   9.772  0.9781 -0.5996 -0.3753
 8978SOL    HW228376   6.060   4.918   9.826 -0.2648 -0.2283  1.0085
 8979SOL     OW28377   5.834   3.374   7.346 -0.1076 -0.2274 -0.0703
 8979SOL    HW128378   5.818   3.452   7.399 -2.4239  0.0758 -1.0826
 8979SOL    HW228379   5.816   3.301   7.405 -1.3953  0.0901 -0.0292
 8980SOL     OW28380   1.490   7.101  11.888 -1.2435  0.0368  0.0763
 8980SOL    HW128381   1.428   7.030  11.902 -0.8452 -0.4369 -0.5239
 8980SOL    HW228382   1.440   7.170  11.845 -1.0504 -0.8886 -1.6998
 8981SOL     OW28383   7.614   2.503  10.262  0.2609 -0.2280  0.5088
 8981SOL    HW128384   7.602   2.469  10.350 -0.1516 -3.6019 -0.7266
 8981SOL    HW228385   7.708   2.523  10.256  0.6274 -1.6744  1.1753
 8982SOL     OW28386   1.714   1.152   2.665  0.3795  0.2285  0.1498
 8982SOL    HW128387   1.619   1.163   2.670  0.3156  1.1385 -1.8735
 8982SOL    HW228388   1.726   1.075   2.610  0.8494 -0.4919  1.2304
 8983SOL     OW28389   7.586   7.941   8.424 -0.1419  0.5424 -0.0370
 8983SOL    HW128390   7.664   7.924   8.477  0.4569  2.1986 -0.3466
 8983SOL    HW228391   7.518   7.962   8.487 -0.1769 -0.2232  0.1944
 8984SOL     OW28392   2.249   1.514   2.211 -0.2854  0.1833  0.2063
 8984SOL    HW128393   2.221   1.599   2.245 -0.8515  0.9014 -1.8955
 8984SOL    HW228394   2.305   1.535   2.136  0.6838 -1.3131  0.4514
 8985SOL     OW28395   2.491   2.573   8.818 -0.3113 -0.0147 -0.8057
 8985SOL    HW128396   2.530   2.614   8.896  0.0158  0.7186 -1.3461
 8985SOL    HW228397   2.541   2.607   8.745 -0.7989 -0.4837 -1.3720
 8986SOL     OW28398   4.216   2.931   8.563  0.1490  0.1384  0.3851
 8986SOL    HW128399   4.294   2.893   8.524  0.0360  0.3411 -0.0533
 8986SOL    HW228400   4.224   3.025   8.546 -0.2611  0.1427  0.2046
 8987SOL     OW28401   5.063   2.744   3.246 -0.2439  0.0774  0.1290
 8987SOL    HW128402   5.015   2.783   3.319  0.8071 -0.1897  0.9771
 8987SOL    HW228403   5.075   2.816   3.184 -0.9081  0.3730  0.3359
 8988SOL     OW28404   1.778   6.606  10.698 -0.4198  0.1896 -0.4039
 8988SOL    HW128405   1.842   6.640  10.761  0.4367 -1.5235 -0.2810
 8988SOL    HW228406   1.714   6.676  10.689  0.4196  1.1968  0.9789
 8989SOL     OW28407   0.216   3.009   2.664  0.1294  0.1979 -0.5311
 8989SOL    HW128408   0.211   3.010   2.760 -1.4593 -0.4665 -0.5563
 8989SOL    HW228409   0.241   2.919   2.642 -0.2344  0.1464 -0.7472
 8990SOL     OW28410   3.085   5.661   7.878  0.5262 -0.3146  0.2139
 8990SOL    HW128411   3.028   5.689   7.806 -0.0778 -0.5958  0.5732
 8990SOL    HW228412   3.035   5.592   7.922  1.3738 -0.9447  0.2144
 8991SOL     OW28413   0.622   2.330   5.641 -0.7596 -0.7772  0.2749
 8991SOL    HW128414   0.532   2.361   5.629 -0.6032  0.0507  1.1533
 8991SOL    HW228415   0.623   2.292   5.729  0.5013  2.1270  1.6354
 8992SOL     OW28416   1.699   1.631   1.918  0.1316 -0.0304  0.0635
 8992SOL    HW128417   1.640   1.558   1.901  2.6248 -2.3346  0.7688
 8992SOL    HW228418   1.672   1.665   2.003 -1.0980 -0.0167 -0.3106
 8993SOL     OW28419   6.008   5.951   0.225  0.3400 -0.5977 -0.4229
 8993SOL    HW128420   6.062   5.923   0.152 -0.2987 -0.3400 -0.9995
 8993SOL    HW228421   6.034   5.894   0.297  1.7346 -0.1405 -0.5399
 8994SOL     OW28422   5.987   0.592   5.681  0.0101  0.2477  0.3318
 8994SOL    HW128423   5.903   0.569   5.640 -0.1286  0.6212  0.3977
 8994SOL    HW228424   6.023   0.509   5.711 -0.5997  0.1399  0.7948
 8995SOL     OW28425   0.880   2.060   1.109 -0.2750  0.0487  0.3282
 8995SOL    HW128426   0.852   1.993   1.172 -1.7397 -1.0734 -1.4233
 8995SOL    HW228427   0.830   2.138   1.135 -1.1063 -0.4881  0.3943
 8996SOL     OW28428   0.438   7.620   0.302  0.5340  0.1524 -0.5019
 8996SOL    HW128429   0.406   7.624   0.392 -1.5508 -0.1495 -1.1847
 8996SOL    HW228430   0.464   7.710   0.282  0.4300  0.3466  0.1912
 8997SOL     OW28431   5.552   3.070   4.913  0.4495 -0.1798  0.2581
 8997SOL    HW128432   5.493   2.996   4.896  1.4819 -0.5584 -1.9871
 8997SOL    HW228433   5.510   3.144   4.871  0.5821  0.0022  0.4453
 8998SOL     OW28434   1.700   5.299   4.102 -0.3898 -0.5696 -0.0863
 8998SOL    HW128435   1.641   5.230   4.071 -1.8479  1.0682 -1.1443
 8998SOL    HW228436   1.651   5.344   4.170  1.8578 -2.5852  3.1175
 8999SOL     OW28437   7.131   0.890   6.175 -0.0099  0.0675  0.8114
 8999SOL    HW128438   7.153   0.903   6.267  0.6374 -0.7181  0.7786
 8999SOL    HW228439   7.172   0.964   6.130  0.8446 -0.2757  1.0020
 9000SOL     OW28440   3.682   6.374   0.076 -0.6678  0.3788  0.5637
 9000SOL    HW128441   3.687   6.436   0.004  0.8147  0.6421  0.8584
 9000SOL    HW228442   3.701   6.289   0.037  1.4908  0.6830  0.7832
 9001SOL     OW28443   6.813   2.162   6.403 -0.8558  0.1074  0.1724
 9001SOL    HW128444   6.881   2.158   6.335  1.3975  0.4076  2.2941
 9001SOL    HW228445   6.777   2.073   6.406  1.9934 -1.1145  1.3915
 9002SOL     OW28446   4.522   7.942   6.305  0.7798 -0.5251  0.6272
 9002SOL    HW128447   4.450   7.991   6.345  1.7600  1.8891 -0.3465
 9002SOL    HW228448   4.598   7.960   6.361  1.1356 -1.0860  0.3341
 9003SOL     OW28449   4.128   0.304   2.246  0.2444 -0.3643  0.1646
 9003SOL    HW128450   4.070   0.296   2.321 -0.0302 -0.4021 -0.0489
 9003SOL    HW228451   4.191   0.233   2.256 -0.5233 -1.1252 -0.2742
 9004SOL     OW28452   3.525   4.955  10.987  0.0088 -0.3665 -0.5188
 9004SOL    HW128453   3.447   5.005  10.964  0.7145  1.2877  0.5283
 9004SOL    HW228454   3.596   5.019  10.986  1.1979 -1.6303 -0.4662
 9005SOL     OW28455   5.904   6.965   9.437 -0.3571  0.0362  0.1503
 9005SOL    HW128456   5.815   6.973   9.401  0.2313  1.7736 -1.0331
 9005SOL    HW228457   5.944   7.050   9.421  1.9700 -1.0985 -0.5613
 9006SOL     OW28458   6.631   1.226  11.682 -0.4418 -0.0766 -0.1608
 9006SOL    HW128459   6.620   1.140  11.641 -0.3221  0.3693 -1.1688
 9006SOL    HW228460   6.712   1.260  11.644 -0.4255  0.4362  0.3239
 9007SOL     OW28461   6.533   6.026   9.325 -0.1135 -0.0832 -0.1835
 9007SOL    HW128462   6.622   6.034   9.360 -0.2099 -1.8829  0.5548
 9007SOL    HW228463   6.516   6.112   9.285  2.3438 -0.0297 -1.3282
 9008SOL     OW28464   4.967   1.934   8.880  0.1018 -0.1714  0.1745
 9008SOL    HW128465   4.919   1.943   8.798  0.7212  0.6446 -0.1216
 9008SOL    HW228466   4.954   2.018   8.925  3.1920  1.0993 -1.0312
 9009SOL     OW28467   7.912   4.997   5.206 -0.4758  0.0593  0.0698
 9009SOL    HW128468   8.006   5.013   5.212 -0.2206  0.3558 -2.8400
 9009SOL    HW228469   7.872   5.071   5.252  0.7207  0.7050  0.1312
 9010SOL     OW28470   2.812   0.518   8.374  0.5406  0.1768  0.0853
 9010SOL    HW128471   2.773   0.506   8.460 -1.7195  1.3810 -0.6964
 9010SOL    HW228472   2.779   0.444   8.323  1.4435 -0.2388  0.0830
 9011SOL     OW28473   6.009   6.088  10.475  0.1319 -0.3395  0.1235
 9011SOL    HW128474   6.020   6.137  10.556 -0.9417  0.5422 -0.2268
 9011SOL    HW228475   5.916   6.065  10.474 -0.5215  1.9052 -2.0168
 9012SOL     OW28476   1.996   4.581   1.897  0.3650  0.3327  0.3988
 9012SOL    HW128477   2.092   4.587   1.892  0.4546 -1.3970 -1.3331
 9012SOL    HW228478   1.967   4.603   1.808 -0.8055  0.2439  0.7507
 9013SOL     OW28479   6.277   2.411  12.293  0.0014  0.3830  0.5136
 9013SOL    HW128480   6.274   2.345  12.363  0.5238 -0.8158 -0.5583
 9013SOL    HW228481   6.333   2.372  12.226 -0.2805  1.6206 -0.4686
 9014SOL     OW28482   1.759   6.266  11.676  0.4356 -0.5093 -0.5913
 9014SOL    HW128483   1.849   6.298  11.672  0.0664  0.7359  0.4263
 9014SOL    HW228484   1.733   6.254  11.585  1.0037  0.9442 -0.9600
 9015SOL     OW28485   2.451   3.056   1.445  0.7034  0.4107  0.0662
 9015SOL    HW128486   2.487   3.109   1.375  1.1844  2.4010  1.7312
 9015SOL    HW228487   2.499   2.973   1.440  1.4120  0.8780 -1.2950
 9016SOL     OW28488   3.747   0.611   6.789 -0.1391  0.6731 -0.3790
 9016SOL    HW128489   3.735   0.677   6.857  0.3742  0.6761 -0.2864
 9016SOL    HW228490   3.842   0.597   6.786 -0.2938 -0.5838  0.1142
 9017SOL     OW28491   2.872   6.676   3.653  0.3239  0.0425 -0.6122
 9017SOL    HW128492   2.941   6.741   3.667  0.1480  0.1385 -0.1745
 9017SOL    HW228493   2.870   6.626   3.734 -0.2420  0.1553 -0.5530
 9018SOL     OW28494   5.128   0.351  11.364  0.3210 -0.1643  0.2529
 9018SOL    HW128495   5.191   0.377  11.431 -0.8906  0.4968  1.1793
 9018SOL    HW228496   5.076   0.282  11.404  0.0124 -0.2389 -0.2582
 9019SOL     OW28497   6.370   3.145   3.043  0.0946 -0.0022  0.0620
 9019SOL    HW128498   6.436   3.167   2.977 -1.4291  0.8004 -1.2382
 9019SOL    HW228499   6.377   3.215   3.108 -0.2706  0.7496 -0.6938
 9020SOL     OW28500   1.737   7.904  11.754  0.1839 -0.0946 -0.5506
 9020SOL    HW128501   1.728   7.840  11.824  0.0539  1.3077  0.7711
 9020SOL    HW228502   1.679   7.976  11.779  0.1508  0.4589 -2.0960
 9021SOL     OW28503   0.898   0.386   5.224  0.0101 -0.0273  0.0111
 9021SOL    HW128504   0.914   0.312   5.165  0.2407  1.0145 -1.2950
 9021SOL    HW228505   0.814   0.423   5.194 -0.9235 -0.6885  1.6833
 9022SOL     OW28506   6.438   2.360   7.676 -0.4751 -0.1827  0.3913
 9022SOL    HW128507   6.377   2.418   7.631 -0.0321  0.3218  0.4264
 9022SOL    HW228508   6.524   2.400   7.661 -0.5080  1.6657  4.0344
 9023SOL     OW28509   1.088   4.103   4.186  0.2428  0.3613 -0.1494
 9023SOL    HW128510   1.063   4.137   4.100  1.6650 -0.0359 -0.7417
 9023SOL    HW228511   1.012   4.051   4.214  0.7142 -1.6860 -2.3409
 9024SOL     OW28512   4.168   7.045   4.146  0.6872 -0.0106  0.5674
 9024SOL    HW128513   4.121   7.073   4.225  1.4725 -0.6178  1.2691
 9024SOL    HW228514   4.217   6.967   4.173 -0.6701 -1.5064 -1.0713
 9025SOL     OW28515   5.006   0.071   4.792 -0.1937  0.3354  0.0668
 9025SOL    HW128516   5.013   0.072   4.888 -0.1217 -0.8227  0.0938
 9025SOL    HW228517   5.093   0.046   4.762 -0.4027 -0.0102 -0.2630
 9026SOL     OW28518   2.543   1.484  11.275  0.3780 -0.1760 -0.1496
 9026SOL    HW128519   2.591   1.542  11.216  0.8289 -0.3501  0.0470
 9026SOL    HW228520   2.453   1.484  11.240  0.8104 -0.9108 -1.3011
 9027SOL     OW28521   2.858   1.172  11.722 -0.1312  0.2074  0.1186
 9027SOL    HW128522   2.789   1.131  11.669  0.4413 -1.5199  0.6489
 9027SOL    HW228523   2.938   1.128  11.694  0.5457  1.1198  0.5862
 9028SOL     OW28524   0.547   2.868   9.330 -0.1532 -0.1242 -0.6650
 9028SOL    HW128525   0.480   2.911   9.384 -0.3725 -0.4882 -0.6379
 9028SOL    HW228526   0.569   2.788   9.379  3.0596  1.7254  1.2808
 9029SOL     OW28527   3.618   2.309   7.685 -0.1982 -0.1510  0.3509
 9029SOL    HW128528   3.550   2.349   7.630  1.4070 -0.8326 -2.3049
 9029SOL    HW228529   3.678   2.381   7.705  0.5095 -0.3688 -0.9226
 9030SOL     OW28530   2.058   1.407   6.525  0.1406 -0.6286 -0.2033
 9030SOL    HW128531   2.112   1.369   6.456 -1.5233 -0.2222 -1.8288
 9030SOL    HW228532   2.029   1.491   6.489 -0.1019 -0.0057  1.3502
 9031SOL     OW28533   7.336   6.664   0.828  0.2694  0.0294  0.0459
 9031SOL    HW128534   7.264   6.603   0.844  0.2200  0.1726  0.3745
 9031SOL    HW228535   7.404   6.638   0.890  0.9432 -0.8088 -1.0038
 9032SOL     OW28536   1.271   7.804   6.796 -0.1723  0.4396  0.3996
 9032SOL    HW128537   1.297   7.857   6.872  0.5208  0.5348  0.1054
 9032SOL    HW228538   1.232   7.866   6.735 -0.6381  0.3789  0.6274
 9033SOL     OW28539   2.172   1.942   4.192  0.1715  0.6777 -0.7138
 9033SOL    HW128540   2.220   1.974   4.115  0.8577  3.0342  0.5915
 9033SOL    HW228541   2.132   2.021   4.229  0.2603 -0.3055  1.6118
 9034SOL     OW28542   0.232   1.468   5.200  0.0234  0.1362 -0.1840
 9034SOL    HW128543   0.270   1.402   5.259  1.2988  0.9034 -0.0887
 9034SOL    HW228544   0.251   1.551   5.243  1.8582  0.7895 -2.0914
 9035SOL     OW28545   1.910   2.078   2.572  0.1129 -0.4464 -0.5849
 9035SOL    HW128546   1.952   1.994   2.551  1.7417  0.4342 -1.0466
 9035SOL    HW228547   1.947   2.102   2.658 -0.5204 -0.3065 -0.3469
 9036SOL     OW28548   5.777   7.633   7.198  0.0668  0.5309 -0.3369
 9036SOL    HW128549   5.735   7.718   7.215 -1.8765 -0.7928  2.0955
 9036SOL    HW228550   5.808   7.605   7.284 -1.1790 -2.1241 -0.6810
 9037SOL     OW28551   3.213   6.811   6.357  0.8547 -0.0193 -0.6838
 9037SOL    HW128552   3.181   6.892   6.316 -1.2376  0.9142  2.3927
 9037SOL    HW228553   3.295   6.837   6.400  0.5749  0.2962 -0.3312
 9038SOL     OW28554   0.918   2.457   9.477  0.0616  0.0903  0.3629
 9038SOL    HW128555   0.908   2.362   9.488 -0.0417  0.2813  2.2791
 9038SOL    HW228556   1.012   2.471   9.474  0.0830 -0.0351  0.4292
 9039SOL     OW28557   1.020   6.737   2.839 -0.1873  0.1760 -0.3017
 9039SOL    HW128558   0.948   6.710   2.782  0.3410  0.3803 -1.0778
 9039SOL    HW228559   1.018   6.833   2.836 -1.3815  0.2859  1.5968
 9040SOL     OW28560   1.149   5.264   9.675 -0.1951  0.5325  0.1445
 9040SOL    HW128561   1.186   5.338   9.628 -0.6775  0.3140 -0.5955
 9040SOL    HW228562   1.209   5.192   9.658 -0.1646  0.5487  0.1840
 9041SOL     OW28563   6.109   1.583   5.361  0.3025  1.0294 -0.2155
 9041SOL    HW128564   6.086   1.675   5.353  2.1700  1.5961  0.6173
 9041SOL    HW228565   6.185   1.572   5.304 -0.5552 -0.2924 -1.1832
 9042SOL     OW28566   1.903   4.250  12.205 -0.1465  0.0281  0.0652
 9042SOL    HW128567   1.952   4.331  12.217 -1.0074  1.0689 -2.6211
 9042SOL    HW228568   1.969   4.181  12.207  0.6231  0.7465  2.2307
 9043SOL     OW28569   4.143   7.656   4.412  0.1728  0.8835  0.2473
 9043SOL    HW128570   4.149   7.720   4.341  0.1650  1.2755  0.5979
 9043SOL    HW228571   4.090   7.585   4.375  1.6107  0.2766 -0.7314
 9044SOL     OW28572   3.247   4.915   0.113  0.0428  0.0702  0.5388
 9044SOL    HW128573   3.185   4.957   0.173 -1.2087 -1.9078  0.7263
 9044SOL    HW228574   3.287   4.845   0.165  1.9487  0.8701  0.1995
 9045SOL     OW28575   4.117   5.580   8.825 -0.2717 -0.7250  0.2943
 9045SOL    HW128576   4.063   5.563   8.748 -0.0691  0.5294 -0.1404
 9045SOL    HW228577   4.201   5.608   8.790  0.6077 -2.3798  0.9673
 9046SOL     OW28578   2.104   7.492  10.528 -0.6241 -0.0870  0.1219
 9046SOL    HW128579   2.019   7.499  10.484 -0.2747  0.0104 -0.5368
 9046SOL    HW228580   2.165   7.468  10.459  0.2265  1.6866  0.2166
 9047SOL     OW28581   6.632   3.997   8.283  0.1784  0.1380 -0.0784
 9047SOL    HW128582   6.721   3.998   8.247  0.1981 -0.9038 -0.0721
 9047SOL    HW228583   6.582   3.941   8.224  0.6109 -3.0544  2.3243
 9048SOL     OW28584   5.307   5.865   6.601 -0.4770  0.5059 -0.3423
 9048SOL    HW128585   5.398   5.892   6.591 -0.4830  1.1912  1.2082
 9048SOL    HW228586   5.256   5.938   6.565 -0.4251  0.6233 -0.1790
 9049SOL     OW28587   4.522   0.809  11.082 -0.2952  0.0375 -0.0595
 9049SOL    HW128588   4.597   0.801  11.141  0.5913  1.2343 -0.9835
 9049SOL    HW228589   4.455   0.752  11.121  0.9707 -0.8273  0.9452
 9050SOL     OW28590   2.152   1.497   1.337  0.3456  0.0086 -0.0061
 9050SOL    HW128591   2.129   1.523   1.426 -1.1085  2.2261 -0.9386
 9050SOL    HW228592   2.116   1.409   1.328 -1.9677  0.8013  0.7882
 9051SOL     OW28593   6.263   5.561   4.129 -0.4156 -0.3770 -0.5303
 9051SOL    HW128594   6.343   5.561   4.182 -1.5415  1.9933  1.3632
 9051SOL    HW228595   6.226   5.473   4.142  0.2467 -0.4360  1.2455
 9052SOL     OW28596   5.668   6.241  11.702 -0.3820 -0.2797 -0.5867
 9052SOL    HW128597   5.621   6.320  11.729 -0.0997 -0.2025 -0.3259
 9052SOL    HW228598   5.602   6.172  11.709 -0.1072 -0.4165  1.1070
 9053SOL     OW28599   3.537   5.892   4.169  0.6827 -0.2181  0.1248
 9053SOL    HW128600   3.460   5.897   4.111  0.0531  3.0522  1.0451
 9053SOL    HW228601   3.589   5.820   4.132 -1.6340 -0.9991 -1.9753
 9054SOL     OW28602   2.526   2.878   3.032 -0.3605  0.1946 -0.2377
 9054SOL    HW128603   2.614   2.889   2.996 -0.7517 -1.3028 -1.7704
 9054SOL    HW228604   2.537   2.813   3.101 -0.2040  0.3677 -0.0952
 9055SOL     OW28605   7.484   7.461   7.983  0.3154  0.0114  0.2936
 9055SOL    HW128606   7.544   7.467   8.058  0.1409 -0.0844  0.4414
 9055SOL    HW228607   7.415   7.401   8.012 -1.0031  1.7511  0.9031
 9056SOL     OW28608   6.097   4.641  11.825  0.1037  0.5308  0.2316
 9056SOL    HW128609   6.043   4.611  11.752 -0.2926  3.0486 -0.6125
 9056SOL    HW228610   6.034   4.677  11.888  0.6240  1.0010  0.4938
 9057SOL     OW28611   7.736   3.410   6.837 -0.2695  0.6189 -0.1519
 9057SOL    HW128612   7.729   3.342   6.904 -2.5736  1.0392  0.1320
 9057SOL    HW228613   7.715   3.491   6.884 -0.2023  1.1537 -1.0265
 9058SOL     OW28614   0.968   1.159   0.954 -0.2228  0.3571 -0.6491
 9058SOL    HW128615   1.020   1.230   0.991 -0.4652  0.1136  0.1602
 9058SOL    HW228616   0.976   1.088   1.017  1.1126 -0.8291 -2.0805
 9059SOL     OW28617   5.958   1.255   2.336  0.2967  0.2837  0.3140
 9059SOL    HW128618   5.976   1.164   2.313 -0.2862  0.2914 -0.2215
 9059SOL    HW228619   6.002   1.269   2.420  0.2428 -0.5400  0.4803
 9060SOL     OW28620   2.250   0.059   7.456 -0.0589 -0.0348  0.5430
 9060SOL    HW128621   2.342   0.057   7.431  0.0347 -0.6031  0.9233
 9060SOL    HW228622   2.226  -0.032   7.469 -0.6444  0.1152  0.5744
 9061SOL     OW28623   6.371   4.834  10.839  0.2734  0.1776  0.5222
 9061SOL    HW128624   6.300   4.826  10.775 -1.3618 -1.6038  2.4010
 9061SOL    HW228625   6.424   4.756  10.825  2.3261  1.7914 -1.2662
 9062SOL     OW28626   3.180   7.912   9.456  0.1620 -0.6047 -0.0026
 9062SOL    HW128627   3.171   7.849   9.527 -0.8305  1.1054  1.4735
 9062SOL    HW228628   3.094   7.952   9.448  0.8056  0.7102 -0.7346
 9063SOL     OW28629   3.721   2.415   6.323  0.1515 -0.1820 -0.0434
 9063SOL    HW128630   3.793   2.380   6.376  0.4691  1.1095  0.4247
 9063SOL    HW228631   3.703   2.501   6.362 -1.6361 -0.4618 -0.1677
 9064SOL     OW28632   5.785   2.733   0.149 -0.4942  0.4180  0.0617
 9064SOL    HW128633   5.716   2.733   0.083 -1.2510 -1.2624  0.7977
 9064SOL    HW228634   5.793   2.642   0.177  1.0593  0.7899  1.0180
 9065SOL     OW28635   3.678   3.076   1.862  0.1509  0.4251 -0.0738
 9065SOL    HW128636   3.764   3.036   1.848  0.5037  0.8732  0.7063
 9065SOL    HW228637   3.639   3.080   1.775  0.8493  0.0509 -0.4145
 9066SOL     OW28638   2.669   3.684   5.365  0.7201  1.2304  0.1237
 9066SOL    HW128639   2.762   3.705   5.354  1.0509 -0.7617 -1.8635
 9066SOL    HW228640   2.652   3.617   5.298 -0.7442 -2.7214  4.0044
 9067SOL     OW28641   6.503   4.394   7.688 -0.6834 -0.2046  0.6195
 9067SOL    HW128642   6.567   4.327   7.664 -2.7000 -1.5080 -1.5148
 9067SOL    HW228643   6.539   4.476   7.654  0.4321 -0.6789  0.6266
 9068SOL     OW28644   6.661   6.531   7.384  0.6180  0.1190 -0.4009
 9068SOL    HW128645   6.625   6.480   7.456  1.6088  0.2699  0.2093
 9068SOL    HW228646   6.756   6.519   7.390  0.7234  0.1111 -1.6932
 9069SOL     OW28647   3.382   1.096   0.577  0.3918  0.2194  0.3212
 9069SOL    HW128648   3.380   1.090   0.673 -3.5542 -0.2427  0.3625
 9069SOL    HW228649   3.356   1.185   0.558  0.6078  0.1436 -0.3663
 9070SOL     OW28650   2.341   5.144  11.392  0.1750 -0.1123  0.2406
 9070SOL    HW128651   2.371   5.234  11.375  1.5900 -0.0829  2.4827
 9070SOL    HW228652   2.273   5.153  11.458 -1.1174 -0.5930 -0.9815
 9071SOL     OW28653   0.046   2.722   8.598  0.6289  0.1154 -0.1634
 9071SOL    HW128654   0.022   2.648   8.543 -3.2090  1.6547 -0.8975
 9071SOL    HW228655   0.003   2.705   8.682  0.8990  0.8669  0.1380
 9072SOL     OW28656   0.814   1.432   0.691 -0.5799  0.1372  0.1210
 9072SOL    HW128657   0.754   1.475   0.631 -0.7472  0.1703  0.3128
 9072SOL    HW228658   0.825   1.494   0.763 -1.3485 -0.4091  0.7277
 9073SOL     OW28659   0.798   3.791   9.087 -0.2347 -0.3323  0.5680
 9073SOL    HW128660   0.849   3.711   9.094 -1.7747 -1.4646 -0.3819
 9073SOL    HW228661   0.794   3.825   9.177  1.9343 -0.3000  0.6961
 9074SOL     OW28662   2.016   1.034   7.296  0.2303 -0.1657 -0.0945
 9074SOL    HW128663   1.969   1.017   7.377 -1.6605 -1.8332 -1.4496
 9074SOL    HW228664   2.063   0.953   7.277  0.2278  0.0131 -0.9257
 9075SOL     OW28665   3.617   7.388  12.256 -0.2071  0.0701  0.0708
 9075SOL    HW128666   3.551   7.364  12.320  0.7012 -0.8001  0.6974
 9075SOL    HW228667   3.617   7.316  12.193  0.0615  0.1332 -0.0012
 9076SOL     OW28668   5.303   4.734  10.136 -0.0146 -0.3163 -0.1576
 9076SOL    HW128669   5.382   4.695  10.174  0.1791 -1.3945 -1.5828
 9076SOL    HW228670   5.232   4.702  10.190  0.3933 -0.5537  0.2428
 9077SOL     OW28671   2.821   0.873   5.870 -0.4869 -0.4477 -0.2590
 9077SOL    HW128672   2.740   0.834   5.903 -0.5395  1.3224  1.8868
 9077SOL    HW228673   2.838   0.827   5.788 -2.9644 -1.7381 -0.1234
 9078SOL     OW28674   6.589   1.192   6.951 -1.0401 -0.8601 -0.2310
 9078SOL    HW128675   6.613   1.100   6.937  0.5998 -0.7823  1.6857
 9078SOL    HW228676   6.672   1.240   6.947 -1.5058  0.1681  1.4104
 9079SOL     OW28677   5.508   3.047  12.373 -0.8315  0.2112 -0.0523
 9079SOL    HW128678   5.415   3.065  12.357 -0.8622  1.4022  1.3458
 9079SOL    HW228679   5.508   2.993  12.452 -0.3265  0.3315  0.0283
 9080SOL     OW28680   4.900   4.277   7.464  0.0299  0.0717 -0.2840
 9080SOL    HW128681   4.878   4.185   7.460  1.0228 -0.3638  2.3672
 9080SOL    HW228682   4.817   4.323   7.449 -0.4304 -1.1694 -1.8672
 9081SOL     OW28683   0.661   4.175   9.521 -0.3961 -0.0595  0.1412
 9081SOL    HW128684   0.652   4.130   9.605  0.8186  0.6886  0.6966
 9081SOL    HW228685   0.582   4.151   9.473  0.0535 -2.5650  0.4997
 9082SOL     OW28686   5.987   3.639   1.254 -0.0817  0.1852  0.3035
 9082SOL    HW128687   5.970   3.699   1.327 -2.1640  1.2298 -0.9384
 9082SOL    HW228688   5.959   3.687   1.176  3.0954 -0.4621 -1.3976
 9083SOL     OW28689   7.002   7.527  12.313 -0.0874  0.0028 -0.3084
 9083SOL    HW128690   7.071   7.494  12.370 -0.7235 -0.1261  0.3911
 9083SOL    HW228691   7.000   7.621  12.329  0.4013  0.1116 -0.8561
 9084SOL     OW28692   0.712   1.325  10.936  0.4970 -0.4432  0.0641
 9084SOL    HW128693   0.620   1.306  10.954  0.2180 -1.2471 -1.9495
 9084SOL    HW228694   0.712   1.361  10.847  2.0697  0.0471  0.2431
 9085SOL     OW28695   7.435   1.523  12.407  0.7328 -0.2961  0.5552
 9085SOL    HW128696   7.439   1.428  12.399 -2.6783 -0.5851  0.9348
 9085SOL    HW228697   7.501   1.555  12.346  1.5484 -2.8814 -0.0284
 9086SOL     OW28698   7.602   3.669   2.049 -0.6245  0.4376  0.9148
 9086SOL    HW128699   7.590   3.691   2.141  1.7360 -0.3343  1.4833
 9086SOL    HW228700   7.690   3.632   2.045 -1.0616 -0.5179 -1.4850
 9087SOL     OW28701   4.055   6.784   8.601 -0.3804  0.0442  0.1853
 9087SOL    HW128702   4.111   6.760   8.675  0.2929  1.2504  0.0964
 9087SOL    HW228703   4.117   6.797   8.528 -0.8626  0.5127 -0.1464
 9088SOL     OW28704   0.456   2.140  11.754  0.5225  0.0498  0.5049
 9088SOL    HW128705   0.398   2.143  11.831 -0.2726 -2.0064  0.0480
 9088SOL    HW228706   0.471   2.047  11.738  0.2703  0.3734 -2.1104
 9089SOL     OW28707   1.655   3.623   8.664 -0.4174 -0.1808  1.1851
 9089SOL    HW128708   1.640   3.549   8.722 -2.3136 -1.4526 -0.7817
 9089SOL    HW228709   1.701   3.587   8.589  1.4825  1.3236  1.5291
 9090SOL     OW28710   1.466   6.103   7.419 -0.0223  0.3871  0.1007
 9090SOL    HW128711   1.402   6.170   7.395 -0.4958 -0.1001 -0.0162
 9090SOL    HW228712   1.545   6.152   7.441 -1.0556  1.1314  2.3666
 9091SOL     OW28713   0.511   3.084   6.916 -0.1472 -0.0327 -0.0793
 9091SOL    HW128714   0.598   3.103   6.880  0.1947 -0.6806  0.3896
 9091SOL    HW228715   0.528   3.053   7.005 -0.7833 -1.1246 -0.3139
 9092SOL     OW28716   5.283   3.625   9.652  0.0692  0.1167  0.6742
 9092SOL    HW128717   5.269   3.653   9.562  2.1635 -0.3122  0.1824
 9092SOL    HW228718   5.283   3.530   9.649  3.0673  0.0327  0.5434
 9093SOL     OW28719   0.861   4.852  10.502 -0.1629 -0.0950  0.5411
 9093SOL    HW128720   0.807   4.773  10.496 -1.4745  0.6794  1.5896
 9093SOL    HW228721   0.950   4.819  10.510 -0.4627 -1.4169 -1.0056
 9094SOL     OW28722   0.490   1.650   8.253  0.6601  0.1992 -0.3864
 9094SOL    HW128723   0.496   1.663   8.159 -1.6962 -0.3108 -0.6762
 9094SOL    HW228724   0.534   1.566   8.268  1.8305  0.7024 -0.8607
 9095SOL     OW28725   7.412   4.965   6.322  0.5485 -0.2539  0.2478
 9095SOL    HW128726   7.353   5.025   6.275  0.7319 -1.4778 -1.6342
 9095SOL    HW228727   7.372   4.956   6.408 -1.8663 -0.7493 -0.8292
 9096SOL     OW28728   2.991   7.297   6.061  0.1545 -0.5122  0.0662
 9096SOL    HW128729   2.985   7.334   5.973  0.3823 -0.6921 -0.0253
 9096SOL    HW228730   2.994   7.203   6.047  2.5485 -0.5017  0.1106
 9097SOL     OW28731   5.078   4.299  10.440 -0.3994 -0.0378  0.7210
 9097SOL    HW128732   5.042   4.228  10.388 -1.0777  2.0403 -1.8651
 9097SOL    HW228733   5.005   4.327  10.496 -0.9158  0.1684 -0.0370
 9098SOL     OW28734   0.319   6.411   7.937 -0.3255  0.3426  0.5442
 9098SOL    HW128735   0.367   6.488   7.969  0.0507 -0.4833  2.1038
 9098SOL    HW228736   0.229   6.441   7.927  0.1935  1.5254 -0.9661
 9099SOL     OW28737   4.566   2.610   5.439  0.3168  0.4603  0.1558
 9099SOL    HW128738   4.577   2.700   5.470  0.0105  0.5330  0.0469
 9099SOL    HW228739   4.656   2.578   5.429  0.4270  0.7460  0.2159
 9100SOL     OW28740   4.987   4.137   1.977  0.2989 -0.3740  0.0868
 9100SOL    HW128741   5.052   4.168   1.914  0.6277  1.5949  1.3044
 9100SOL    HW228742   5.032   4.143   2.062 -0.5753 -1.6502  0.6711
 9101SOL     OW28743   6.281   0.008  11.835  0.3695  0.2723 -0.2295
 9101SOL    HW128744   6.280  -0.074  11.883 -0.1326  0.0132 -0.6794
 9101SOL    HW228745   6.278   0.076  11.903  0.7091 -0.0786  0.1365
 9102SOL     OW28746   6.001   5.360   5.662 -0.1861  0.0929  0.7361
 9102SOL    HW128747   5.931   5.408   5.619 -0.9737  0.4802  2.3484
 9102SOL    HW228748   5.958   5.283   5.699  0.6143 -0.6474  0.1844
 9103SOL     OW28749   7.751   5.874   1.439  0.1182  0.0564 -0.1496
 9103SOL    HW128750   7.692   5.881   1.364  2.7250  1.6091 -2.2082
 9103SOL    HW228751   7.821   5.816   1.409 -1.0574 -3.3751  2.9023
 9104SOL     OW28752   7.607   5.245   2.694 -0.1399  0.6952 -0.6166
 9104SOL    HW128753   7.598   5.320   2.636  1.9835  1.3369 -0.2263
 9104SOL    HW228754   7.651   5.178   2.640  0.7145  0.8531 -0.1437
 9105SOL     OW28755   7.175   6.695   2.776  0.0131  0.9229  0.0114
 9105SOL    HW128756   7.155   6.684   2.869 -1.8872 -3.6296 -0.6400
 9105SOL    HW228757   7.257   6.646   2.764  0.9683  2.5990 -0.5841
 9106SOL     OW28758   3.893   0.950   4.837  0.5613  0.4047  0.2965
 9106SOL    HW128759   3.832   0.898   4.785  1.3897 -0.9838  0.6566
 9106SOL    HW228760   3.921   1.020   4.779 -0.5757  0.4571 -0.2129
 9107SOL     OW28761   1.795   1.189   1.274 -0.1246 -0.1853  0.9041
 9107SOL    HW128762   1.761   1.219   1.358  0.8448  0.6453  1.0207
 9107SOL    HW228763   1.717   1.172   1.220 -0.7467 -0.5942  1.9103
 9108SOL     OW28764   7.628   6.123  12.125  0.0376 -0.2512 -0.0297
 9108SOL    HW128765   7.553   6.063  12.126 -0.8089  0.7679  0.7784
 9108SOL    HW228766   7.697   6.075  12.171 -0.7329 -0.4933  0.9183
 9109SOL     OW28767   0.310   5.686   7.142  0.8724  0.2508  0.3516
 9109SOL    HW128768   0.338   5.633   7.217  1.5179 -0.9438 -0.6940
 9109SOL    HW228769   0.391   5.719   7.105  0.6749 -0.3084 -0.6111
 9110SOL     OW28770   0.300   2.946   0.162  0.3494 -0.0510 -0.1194
 9110SOL    HW128771   0.377   2.946   0.219  0.4780 -0.6546 -0.2845
 9110SOL    HW228772   0.250   2.869   0.190  0.6949 -0.6800 -1.1886
 9111SOL     OW28773   2.248   5.857   4.677 -0.4935  0.0348 -0.0669
 9111SOL    HW128774   2.273   5.789   4.740 -1.0876  0.9397  1.2019
 9111SOL    HW228775   2.167   5.894   4.713 -1.6294 -0.3461 -2.1259
 9112SOL     OW28776   4.648   6.805   6.506  0.4128 -0.4880 -0.2023
 9112SOL    HW128777   4.603   6.786   6.588 -1.0044 -0.3475 -0.9139
 9112SOL    HW228778   4.618   6.737   6.446  1.3477 -0.5240 -0.6337
 9113SOL     OW28779   0.841   0.013   6.148  0.6493  0.1556  0.0331
 9113SOL    HW128780   0.936   0.015   6.141  0.7032  0.4083  0.7677
 9113SOL    HW228781   0.822   0.052   6.233 -0.1215  0.2614 -0.1790
 9114SOL     OW28782   3.310   1.991   7.795  0.6251  0.1016  0.7315
 9114SOL    HW128783   3.353   2.077   7.793  0.1371  0.3429  0.4306
 9114SOL    HW228784   3.366   1.938   7.851  0.9991  0.5827  0.8243
 9115SOL     OW28785   2.964   1.903   3.521  0.1260  0.5375 -0.2657
 9115SOL    HW128786   3.049   1.860   3.519  0.5508  1.2883  0.8009
 9115SOL    HW228787   2.923   1.879   3.438  1.6140  0.6361 -1.0618
 9116SOL     OW28788   4.951   3.585   9.583 -0.1432 -0.0638  0.4185
 9116SOL    HW128789   5.011   3.628   9.522 -0.7304  0.2604  0.0592
 9116SOL    HW228790   4.925   3.654   9.645 -2.3284  0.5778 -1.0977
 9117SOL     OW28791   5.695   2.556   5.464 -0.1736 -0.1948  0.2430
 9117SOL    HW128792   5.768   2.495   5.479  0.4166  0.3907 -0.2229
 9117SOL    HW228793   5.617   2.504   5.481  0.1735 -1.9023 -2.6658
 9118SOL     OW28794   0.862   6.510  12.206  0.3449 -0.6713  0.2138
 9118SOL    HW128795   0.946   6.556  12.201  0.5265 -0.8791  1.1825
 9118SOL    HW228796   0.816   6.553  12.277 -0.9706  0.3710 -1.2059
 9119SOL     OW28797   5.263   6.841   7.092 -0.1338 -0.2122 -0.4584
 9119SOL    HW128798   5.255   6.925   7.047  0.8304  0.0784 -0.1116
 9119SOL    HW228799   5.173   6.818   7.116 -0.3875  0.8093 -0.3894
 9120SOL     OW28800   7.598   0.851   9.699 -0.7374 -0.9838 -0.1647
 9120SOL    HW128801   7.672   0.817   9.750  0.0130  0.4971 -0.2151
 9120SOL    HW228802   7.522   0.801   9.730  0.1529 -1.9823  0.4526
 9121SOL     OW28803   1.298   6.898  11.978  0.3404  0.0062  0.2186
 9121SOL    HW128804   1.217   6.886  11.928  0.1903  1.5862  0.0544
 9121SOL    HW228805   1.343   6.814  11.971  0.3174  0.1446 -2.5284
 9122SOL     OW28806   4.992   0.317  12.239 -0.2550 -0.6116 -0.1172
 9122SOL    HW128807   4.935   0.388  12.211  1.8974  2.7302  3.0815
 9122SOL    HW228808   5.072   0.329  12.189  0.5202 -0.0051  1.2198
 9123SOL     OW28809   2.944   0.753   9.368  0.9389 -0.5402  0.1211
 9123SOL    HW128810   3.026   0.711   9.396  0.6514 -1.2838 -0.1252
 9123SOL    HW228811   2.959   0.775   9.276  0.9798 -0.3857  0.1649
 9124SOL     OW28812   7.188   5.386   4.031 -0.2351 -0.8280 -0.3856
 9124SOL    HW128813   7.273   5.396   3.989  0.1066 -0.5568  0.3400
 9124SOL    HW228814   7.179   5.465   4.085  0.7734 -2.4961  2.4874
 9125SOL     OW28815   7.538   1.385   3.191 -0.3692 -0.0954 -0.3944
 9125SOL    HW128816   7.588   1.450   3.240 -1.8389  0.7622  0.0022
 9125SOL    HW228817   7.593   1.365   3.115  1.8789 -1.3150  1.4231
 9126SOL     OW28818   3.460   6.247  11.858 -0.0937  0.3465 -0.6516
 9126SOL    HW128819   3.422   6.331  11.885 -1.8386 -0.4313 -0.6229
 9126SOL    HW228820   3.467   6.197  11.939 -0.6092 -0.1375 -0.9046
 9127SOL     OW28821   4.495   6.786  10.160  0.2957  0.2157 -0.3764
 9127SOL    HW128822   4.433   6.780  10.233 -0.2922  1.5507 -0.7385
 9127SOL    HW228823   4.555   6.712  10.173  0.4397  0.6334  1.6912
 9128SOL     OW28824   6.025   0.909   4.378  0.4253 -1.1046 -0.3121
 9128SOL    HW128825   6.115   0.911   4.343  0.2463 -0.2475 -0.7537
 9128SOL    HW228826   6.016   0.821   4.415  1.0871 -1.5811 -1.2225
 9129SOL     OW28827   3.194   2.538   0.981  0.0891  0.3953 -0.3488
 9129SOL    HW128828   3.109   2.578   1.001 -0.1488  0.2763 -1.1011
 9129SOL    HW228829   3.175   2.445   0.971  0.5262  0.1827  0.7057
 9130SOL     OW28830   4.506   1.737  11.961 -0.0983  0.5347 -0.0022
 9130SOL    HW128831   4.514   1.801  12.032  2.3915  0.1007  0.1771
 9130SOL    HW228832   4.499   1.653  12.005  0.3652  0.3547 -0.2744
 9131SOL     OW28833   2.041   2.407   0.126  0.3548  0.2522  0.6368
 9131SOL    HW128834   2.120   2.356   0.110  0.0668  0.2782 -0.9773
 9131SOL    HW228835   1.976   2.343   0.154  0.0737 -0.2662 -1.1087
 9132SOL     OW28836   4.961   0.741   2.209 -0.3616  0.6123  0.2820
 9132SOL    HW128837   4.997   0.829   2.199  1.7867 -0.3296 -0.8497
 9132SOL    HW228838   4.871   0.755   2.239 -0.0811  3.1712  0.1066
 9133SOL     OW28839   1.936   1.231   8.439  0.1304 -0.0490  0.2998
 9133SOL    HW128840   1.920   1.203   8.349  0.7389 -0.5564  0.3428
 9133SOL    HW228841   1.856   1.276   8.465  0.0215  0.2638 -0.5568
 9134SOL     OW28842   5.492   7.530   4.630 -0.8814  0.3460  0.2403
 9134SOL    HW128843   5.446   7.447   4.632  2.3381 -1.5939  0.1716
 9134SOL    HW228844   5.557   7.524   4.700  1.6907  1.3091 -1.8843
 9135SOL     OW28845   5.914   2.305   1.533 -0.2521  0.0676  0.2892
 9135SOL    HW128846   5.945   2.218   1.507  1.5852  0.4823  0.9515
 9135SOL    HW228847   5.913   2.355   1.451 -2.0693 -0.7331 -0.2380
 9136SOL     OW28848   2.281   3.772   8.177  0.3781  0.6358  0.4050
 9136SOL    HW128849   2.206   3.723   8.211  0.1444 -0.2763 -1.3322
 9136SOL    HW228850   2.344   3.706   8.152  0.3993  1.2247 -1.2135
 9137SOL     OW28851   0.842   7.667   6.135 -0.1995  0.5584 -0.1604
 9137SOL    HW128852   0.854   7.575   6.161  0.4351  0.1144 -1.8624
 9137SOL    HW228853   0.756   7.691   6.171  0.0492 -0.3923  1.1241
 9138SOL     OW28854   4.351   6.084   0.916 -0.2981  0.8639  0.0788
 9138SOL    HW128855   4.264   6.123   0.912 -1.1384 -0.9540 -0.0104
 9138SOL    HW228856   4.336   5.990   0.908  1.5903  0.4248  1.2020
 9139SOL     OW28857   5.020   2.257  11.580 -0.6322  0.0298  0.0598
 9139SOL    HW128858   5.033   2.351  11.574  0.2263 -0.1540 -1.2463
 9139SOL    HW228859   5.107   2.219  11.566 -1.3318 -1.0147 -1.7642
 9140SOL     OW28860   0.869   3.470   1.172 -0.5974  0.2686  0.0974
 9140SOL    HW128861   0.832   3.382   1.164  1.3969 -0.9450  2.8435
 9140SOL    HW228862   0.913   3.485   1.088 -0.3753 -1.6864 -0.1827
 9141SOL     OW28863   4.648   7.042  12.303 -0.0251 -0.1521  0.5758
 9141SOL    HW128864   4.615   7.108  12.363 -2.5645  0.5447 -1.4084
 9141SOL    HW228865   4.577   6.977  12.297  0.0699 -0.1240 -1.7025
 9142SOL     OW28866   6.809   6.883  10.720  0.7476 -0.5540 -0.0827
 9142SOL    HW128867   6.766   6.803  10.749  0.5318 -0.4941 -0.2343
 9142SOL    HW228868   6.806   6.879  10.624  0.1061 -0.0281 -0.0922
 9143SOL     OW28869   4.705   6.890   0.135  0.0663 -0.6957 -0.7985
 9143SOL    HW128870   4.727   6.806   0.095 -0.4739 -1.1211 -0.1967
 9143SOL    HW228871   4.754   6.892   0.217 -1.3999 -1.2676  0.1244
 9144SOL     OW28872   3.983   2.104   2.015 -0.1174  0.4402 -0.6141
 9144SOL    HW128873   3.954   2.022   2.055 -0.1805  0.5910 -0.3532
 9144SOL    HW228874   4.003   2.080   1.924 -1.1960  0.3721 -0.8369
 9145SOL     OW28875   5.481   0.786   3.523  0.8821 -0.4441 -0.2114
 9145SOL    HW128876   5.546   0.853   3.546  0.3002 -0.2178  0.8138
 9145SOL    HW228877   5.469   0.736   3.603 -1.8258  0.8850  0.3155
 9146SOL     OW28878   6.332   1.254   3.321 -0.0557 -0.1898 -0.4166
 9146SOL    HW128879   6.384   1.331   3.344  0.1080 -0.5374  0.3878
 9146SOL    HW228880   6.242   1.277   3.345 -0.3651  0.5063 -2.0307
 9147SOL     OW28881   0.295   4.654  10.440  0.1913  0.0510  0.5236
 9147SOL    HW128882   0.287   4.642  10.535 -0.2928  0.2937  0.5120
 9147SOL    HW228883   0.373   4.709  10.429  0.3920 -0.1786  0.7606
 9148SOL     OW28884   1.427   5.216   6.667 -0.0281 -0.2695 -0.0562
 9148SOL    HW128885   1.491   5.286   6.676  0.4615 -0.6778 -0.2967
 9148SOL    HW228886   1.377   5.239   6.589  0.1904 -0.2305 -0.1875
 9149SOL     OW28887   2.476   5.294   2.539 -0.5994 -0.4586  0.2641
 9149SOL    HW128888   2.413   5.276   2.470 -0.0974 -1.2188 -0.0100
 9149SOL    HW228889   2.434   5.361   2.593 -1.4649 -0.6674 -0.1314
 9150SOL     OW28890   1.978   3.621   1.846  0.1720 -0.3865 -0.1631
 9150SOL    HW128891   2.013   3.571   1.772 -2.3096 -0.6359 -1.2690
 9150SOL    HW228892   1.994   3.712   1.824 -0.2980 -0.4740 -0.9232
 9151SOL     OW28893   0.872   0.109   5.779  0.0742 -0.4385  0.3817
 9151SOL    HW128894   0.788   0.063   5.772 -0.3603  0.2142  1.1600
 9151SOL    HW228895   0.854   0.183   5.836  0.7720  0.7045 -0.8406
 9152SOL     OW28896   0.729   5.315  11.680 -0.1891 -0.2385  0.4514
 9152SOL    HW128897   0.663   5.253  11.710  0.5495 -0.5530  1.4686
 9152SOL    HW228898   0.682   5.398  11.671 -0.9919 -0.7377 -0.0827
 9153SOL     OW28899   4.326   0.384  10.042  0.2286 -0.1976  0.8590
 9153SOL    HW128900   4.296   0.466  10.083  0.8428  0.3071  0.3337
 9153SOL    HW228901   4.402   0.358  10.095 -0.0946 -0.5485  1.1544
 9154SOL     OW28902   7.070   5.776   7.089 -0.0663 -0.8354  0.5251
 9154SOL    HW128903   7.158   5.763   7.126 -0.4129  0.6067  1.9721
 9154SOL    HW228904   7.011   5.741   7.156 -0.6304 -1.3143 -0.2125
 9155SOL     OW28905   6.288   4.133   5.121  0.4256 -0.0213 -0.0934
 9155SOL    HW128906   6.326   4.099   5.202 -0.1151  0.3076  0.3087
 9155SOL    HW228907   6.260   4.055   5.073 -0.5399 -0.1878  0.6911
 9156SOL     OW28908   1.489   5.582   9.450  0.3840  0.2554  0.4615
 9156SOL    HW128909   1.526   5.666   9.423 -2.6053  2.1828  1.8850
 9156SOL    HW228910   1.548   5.517   9.411  2.4454  2.9331 -1.2943
 9157SOL     OW28911   3.009   7.551   3.399 -0.6489 -0.3661  0.3099
 9157SOL    HW128912   3.082   7.500   3.364 -1.4245 -0.6067 -1.0003
 9157SOL    HW228913   2.946   7.485   3.429 -0.3404 -0.1596  1.4872
 9158SOL     OW28914   0.015   5.098   4.568 -0.8103 -0.1253  0.3607
 9158SOL    HW128915  -0.067   5.149   4.560 -0.0574  1.2222  0.8255
 9158SOL    HW228916   0.069   5.151   4.627 -0.3175 -1.9482  1.6149
 9159SOL     OW28917   6.985   2.223   2.104 -0.2687  0.2201  0.0956
 9159SOL    HW128918   7.071   2.265   2.109 -0.8666  1.3720  1.7062
 9159SOL    HW228919   6.929   2.278   2.158 -1.2678 -2.3162  1.8182
 9160SOL     OW28920   2.878   6.138   8.875  0.2145 -0.4689 -0.2767
 9160SOL    HW128921   2.966   6.105   8.857  1.0706  1.0387  0.9002
 9160SOL    HW228922   2.838   6.071   8.930  1.7399  0.1407  1.6758
 9161SOL     OW28923   1.537   4.070   4.976 -0.1116 -0.3382  0.2246
 9161SOL    HW128924   1.510   3.983   4.945  0.9137 -0.6247  0.1036
 9161SOL    HW228925   1.562   4.117   4.897 -0.4800  0.0088  0.3106
 9162SOL     OW28926   1.003   3.222   9.036  0.0188  0.8097  0.0592
 9162SOL    HW128927   1.039   3.232   8.948 -1.8586 -1.0402 -1.0091
 9162SOL    HW228928   0.971   3.132   9.039  0.3322  0.7045  2.7883
 9163SOL     OW28929   4.301   7.733   9.894 -0.2240  0.5765  0.3930
 9163SOL    HW128930   4.371   7.793   9.918 -1.3685  2.5242 -0.8330
 9163SOL    HW228931   4.345   7.653   9.866  1.3721  0.8661  1.9263
 9164SOL     OW28932   0.991   7.826   1.092 -0.1449 -0.0405  0.2044
 9164SOL    HW128933   0.934   7.892   1.052 -0.1304 -0.1063  0.0760
 9164SOL    HW228934   1.045   7.876   1.154 -1.2844 -0.1758  1.3417
 9165SOL     OW28935   7.475   2.835   8.957  0.3063 -0.1109 -0.6052
 9165SOL    HW128936   7.381   2.826   8.939  0.0466  1.5141 -0.1679
 9165SOL    HW228937   7.480   2.899   9.028  1.7411 -0.4660 -0.3513
 9166SOL     OW28938   7.444   1.628   9.422 -0.9444  0.6479  0.4762
 9166SOL    HW128939   7.419   1.717   9.400  0.1868  1.0441  0.6968
 9166SOL    HW228940   7.539   1.632   9.434 -1.1870  0.0333  3.2593
 9167SOL     OW28941   1.638   1.856   4.389  0.3572 -0.6146 -0.2537
 9167SOL    HW128942   1.682   1.939   4.407  0.0867  0.0509 -2.3598
 9167SOL    HW228943   1.697   1.811   4.329 -0.6186 -0.8387 -1.0736
 9168SOL     OW28944   1.444   4.771   2.235  0.0832 -0.0319 -0.5933
 9168SOL    HW128945   1.415   4.711   2.167 -0.6070  0.0481 -0.3741
 9168SOL    HW228946   1.540   4.766   2.232  0.0402 -0.7896 -0.8849
 9169SOL     OW28947   6.674   3.203   5.267 -0.7037  0.4681  0.1827
 9169SOL    HW128948   6.677   3.277   5.327 -0.2428  1.7751 -1.3734
 9169SOL    HW228949   6.702   3.239   5.183 -0.1506 -1.5472 -0.5670
 9170SOL     OW28950   6.844   0.036   3.993  0.1182 -0.7629 -0.3101
 9170SOL    HW128951   6.802  -0.049   4.007 -0.3822 -0.6036 -0.8491
 9170SOL    HW228952   6.903   0.021   3.919 -0.9032 -0.3132 -1.2183
 9171SOL     OW28953   2.866   7.311   0.315 -0.3372 -0.6385  0.5986
 9171SOL    HW128954   2.845   7.239   0.256  1.3594  0.0132 -0.8990
 9171SOL    HW228955   2.917   7.270   0.385 -1.8798 -1.3233  1.3739
 9172SOL     OW28956   5.624   5.656   8.589  0.2176 -0.5569 -0.0022
 9172SOL    HW128957   5.608   5.715   8.663  0.8549  0.7889 -0.8852
 9172SOL    HW228958   5.710   5.683   8.556  0.3396 -1.7265 -0.6991
 9173SOL     OW28959   3.985   4.957  10.697  0.2242  0.3091  0.0151
 9173SOL    HW128960   3.896   4.923  10.706  0.1406 -0.2899 -2.3703
 9173SOL    HW228961   4.004   4.998  10.782 -2.5204  0.9893  0.4003
 9174SOL     OW28962   5.448   2.599   2.645 -0.1130 -0.6137  0.7149
 9174SOL    HW128963   5.498   2.651   2.707 -1.8470  0.5952  1.1661
 9174SOL    HW228964   5.369   2.574   2.693 -1.5193  0.3776 -0.9870
 9175SOL     OW28965   5.649   4.384  10.605 -0.3696 -0.0237  0.1968
 9175SOL    HW128966   5.595   4.367  10.682 -0.5469 -0.6770 -0.0676
 9175SOL    HW228967   5.655   4.300  10.560 -0.7101  0.4588 -0.7902
 9176SOL     OW28968   0.515   3.940   2.303  0.0915  0.0077 -0.0132
 9176SOL    HW128969   0.560   4.001   2.362 -0.0612  0.6489 -0.5438
 9176SOL    HW228970   0.545   3.853   2.330 -0.3983  0.2386  1.3774
 9177SOL     OW28971   7.051   0.205   6.491 -0.1099  0.3948  0.2721
 9177SOL    HW128972   6.975   0.226   6.437  0.0703 -0.7636 -0.4772
 9177SOL    HW228973   7.070   0.113   6.469  0.6994  0.2789  1.4247
 9178SOL     OW28974   6.858   5.541   4.210 -0.2511 -0.2057 -0.4863
 9178SOL    HW128975   6.807   5.541   4.129 -0.3145  3.1688 -0.5891
 9178SOL    HW228976   6.810   5.483   4.269 -2.4638  0.4037 -1.5837
 9179SOL     OW28977   1.103   5.295   6.706 -0.3692 -0.2525 -0.6565
 9179SOL    HW128978   1.131   5.213   6.665  0.4822 -0.1591 -0.2926
 9179SOL    HW228979   1.162   5.361   6.669  0.8165 -0.2557  1.0890
 9180SOL     OW28980   6.856   6.443   8.251 -0.2812 -0.4318 -0.5977
 9180SOL    HW128981   6.945   6.474   8.234 -0.4582  1.6732  1.8109
 9180SOL    HW228982   6.869   6.356   8.290  0.6331 -0.5370 -1.0970
 9181SOL     OW28983   6.389   1.466  10.850  0.6292  0.0612  0.1303
 9181SOL    HW128984   6.393   1.372  10.835  0.0884 -0.2954  2.0207
 9181SOL    HW228985   6.297   1.488  10.839  0.5940  0.1932  0.7045
 9182SOL     OW28986   6.106   1.365   9.794  0.7558 -0.8199 -0.4652
 9182SOL    HW128987   6.082   1.435   9.734  0.2775  0.7123  1.4066
 9182SOL    HW228988   6.156   1.409   9.863 -0.6236 -2.0533  1.4191
 9183SOL     OW28989   0.835   5.720   2.607 -0.4681  0.1549  0.3737
 9183SOL    HW128990   0.780   5.740   2.682 -0.0060 -0.5040  0.8953
 9183SOL    HW228991   0.844   5.624   2.608  0.5152  0.2340  0.1828
 9184SOL     OW28992   4.621   3.373  11.624  0.1903  0.1439 -0.1066
 9184SOL    HW128993   4.670   3.358  11.705 -3.5050 -1.8515  2.0316
 9184SOL    HW228994   4.584   3.460  11.635  2.2035  1.2175 -1.2528
 9185SOL     OW28995   0.339   7.229   8.176  0.7775  0.5318 -0.0489
 9185SOL    HW128996   0.408   7.215   8.241 -0.6441 -0.6186  1.2917
 9185SOL    HW228997   0.323   7.323   8.179  2.4656  0.8696 -0.6119
 9186SOL     OW28998   1.714   6.164   1.920 -0.0628 -0.3321  0.0275
 9186SOL    HW128999   1.737   6.231   1.985  1.8347 -0.1321 -0.7875
 9186SOL    HW229000   1.759   6.085   1.950 -0.1542 -0.5593 -0.4235
 9187SOL     OW29001   4.605   1.423   4.833  0.7460  0.1289  0.4599
 9187SOL    HW129002   4.590   1.464   4.748 -0.5793  2.0637  1.5420
 9187SOL    HW229003   4.519   1.391   4.860  0.8852  0.6441  1.5841
 9188SOL     OW29004   4.718   5.507   4.851 -0.2641  0.0205  0.7091
 9188SOL    HW129005   4.736   5.497   4.758 -1.0701  1.3281  0.3743
 9188SOL    HW229006   4.800   5.487   4.895  0.2537 -0.1394 -0.3189
 9189SOL     OW29007   2.100   5.961   1.213  0.2450  0.5182 -0.2091
 9189SOL    HW129008   2.013   5.928   1.193  0.2674 -0.4618  1.2027
 9189SOL    HW229009   2.158   5.886   1.199  0.7675  0.9389 -0.3446
 9190SOL     OW29010   6.514   3.347   7.056 -0.2780  0.0780  0.2275
 9190SOL    HW129011   6.473   3.380   6.976  0.2274  0.3481  0.0730
 9190SOL    HW229012   6.550   3.425   7.098  0.9315 -0.2664 -0.1348
 9191SOL     OW29013   7.256   3.217  11.953 -0.2670  0.7237 -0.0067
 9191SOL    HW129014   7.348   3.235  11.932 -0.6911  2.5306 -0.4578
 9191SOL    HW229015   7.246   3.123  11.938  1.5188  0.4776  0.1138
 9192SOL     OW29016   5.235   4.309  10.862 -0.6886 -0.0685  0.4525
 9192SOL    HW129017   5.199   4.253  10.931 -0.1146 -0.6876  0.2580
 9192SOL    HW229018   5.172   4.382  10.856 -1.5076 -0.7392  0.6351
 9193SOL     OW29019   1.095   4.593   0.446 -0.0229 -0.3923  0.4182
 9193SOL    HW129020   1.101   4.501   0.472  0.5316 -0.1133  1.3328
 9193SOL    HW229021   1.046   4.634   0.518  0.1009  0.1066  0.2193
 9194SOL     OW29022   5.436   2.147   6.415  0.0114 -0.3123  0.0452
 9194SOL    HW129023   5.391   2.229   6.431  2.1085  0.7806  0.6666
 9194SOL    HW229024   5.375   2.080   6.445 -1.2583  1.0694  0.6520
 9195SOL     OW29025   3.991   4.850   1.070  0.2574  0.6141 -0.0755
 9195SOL    HW129026   4.041   4.790   1.127 -1.4321 -2.6916 -1.7999
 9195SOL    HW229027   3.934   4.898   1.130  0.1339 -1.1136  1.2753
 9196SOL     OW29028   4.820   1.599   3.962  0.1912 -0.0891  0.0276
 9196SOL    HW129029   4.906   1.640   3.959  0.0056  0.2926 -0.1633
 9196SOL    HW229030   4.758   1.672   3.962 -0.1224 -0.3329  0.9250
 9197SOL     OW29031   1.581   2.241   3.919 -0.1534  0.1329 -0.7106
 9197SOL    HW129032   1.525   2.319   3.926 -0.2439 -0.0973  2.1207
 9197SOL    HW229033   1.649   2.267   3.857 -1.4294  1.6491 -1.5658
 9198SOL     OW29034   5.752   7.343  10.712 -0.7720  0.0505  0.5556
 9198SOL    HW129035   5.815   7.349  10.784 -1.5907 -0.4963  1.3375
 9198SOL    HW229036   5.672   7.382  10.747 -0.8292  0.8847 -0.4816
 9199SOL     OW29037   6.923   1.842   8.210  0.1681  0.0952  0.0222
 9199SOL    HW129038   6.865   1.882   8.275 -2.5944 -1.4211 -1.3822
 9199SOL    HW229039   6.970   1.775   8.260 -2.6564 -1.7624  0.4195
 9200SOL     OW29040   2.765   1.003   5.451 -0.1908  0.5127  0.0417
 9200SOL    HW129041   2.810   1.047   5.523 -0.7024 -0.1550  0.7889
 9200SOL    HW229042   2.757   1.070   5.383  3.1252  0.3124 -0.7089
 9201SOL     OW29043   4.502   3.449  10.473  0.5496 -0.1595 -0.4642
 9201SOL    HW129044   4.523   3.519  10.534 -0.6094 -0.4359  0.2874
 9201SOL    HW229045   4.496   3.370  10.527 -1.7123 -0.1961 -0.6739
 9202SOL     OW29046   2.582   5.899   7.737 -0.1361 -0.6056  0.2854
 9202SOL    HW129047   2.629   5.936   7.811 -0.9842 -0.7310  0.8959
 9202SOL    HW229048   2.507   5.957   7.725 -0.4195 -1.0250  0.0137
 9203SOL     OW29049   4.717   7.759   7.161 -0.2579  0.7767  0.0843
 9203SOL    HW129050   4.699   7.743   7.253 -1.3202  0.1485 -0.2248
 9203SOL    HW229051   4.792   7.703   7.141 -1.4356 -0.8295  0.0192
 9204SOL     OW29052   0.981   5.878   7.265 -0.7905  0.1485 -0.7688
 9204SOL    HW129053   0.946   5.845   7.348 -0.8580  0.1795 -0.7854
 9204SOL    HW229054   1.047   5.814   7.240  2.2997  2.1689  1.4362
 9205SOL     OW29055   7.334   1.065   2.033  0.0580  0.2511  0.7698
 9205SOL    HW129056   7.388   1.126   1.983 -1.6264  2.7266  1.7436
 9205SOL    HW229057   7.337   1.098   2.123 -0.5579 -1.4097  1.4423
 9206SOL     OW29058   4.871   5.894   4.527  0.0808  0.4301  0.4342
 9206SOL    HW129059   4.965   5.908   4.522  0.2881 -0.9562 -0.1108
 9206SOL    HW229060   4.832   5.971   4.486  1.0366  0.3609 -0.6444
 9207SOL     OW29061   6.286   5.993  12.213  0.1496 -1.2323 -0.0945
 9207SOL    HW129062   6.280   6.078  12.255  0.9010  0.4731 -3.1246
 9207SOL    HW229063   6.195   5.971  12.189  0.0955 -0.5974 -0.4851
 9208SOL     OW29064   6.765   2.331   0.275 -0.4529 -0.5941  0.1518
 9208SOL    HW129065   6.739   2.378   0.196  0.3114 -2.2266 -1.1085
 9208SOL    HW229066   6.793   2.400   0.336 -0.5398  0.6487 -1.1724
 9209SOL     OW29067   0.549   0.858   1.853 -0.1565 -0.3911 -0.3189
 9209SOL    HW129068   0.604   0.910   1.793  0.3912  0.2989  0.7386
 9209SOL    HW229069   0.518   0.785   1.800 -0.8835  0.9683 -1.8468
 9210SOL     OW29070   2.132   5.651   5.829 -0.5689 -0.1613  0.1959
 9210SOL    HW129071   2.137   5.726   5.889  0.0272 -0.7604  0.9197
 9210SOL    HW229072   2.185   5.584   5.871 -1.0264 -0.9649 -0.4887
 9211SOL     OW29073   7.524   0.374   0.145 -0.4251  0.0605 -0.2578
 9211SOL    HW129074   7.452   0.419   0.102 -1.4978  1.2172  2.4996
 9211SOL    HW229075   7.574   0.444   0.187  2.0219 -0.7660 -1.5952
 9212SOL     OW29076   0.675   4.004  10.344  0.5292 -0.1758 -0.2749
 9212SOL    HW129077   0.721   4.013  10.427  0.6737 -2.2120 -0.1071
 9212SOL    HW229078   0.582   4.009  10.367  0.5751 -0.4603 -0.0315
 9213SOL     OW29079   3.929   5.200  11.549  0.2441 -0.1624  0.2064
 9213SOL    HW129080   4.012   5.222  11.505  0.8360 -2.7098 -0.1091
 9213SOL    HW229081   3.863   5.209  11.480  0.3777  0.9076  0.1960
 9214SOL     OW29082   0.753   2.865   0.012  0.0551 -0.2952 -0.5967
 9214SOL    HW129083   0.848   2.878   0.007  0.0023  0.5331  0.2837
 9214SOL    HW229084   0.741   2.808   0.089 -0.2279  0.4840 -0.0550
 9215SOL     OW29085   3.195   5.677   9.039  0.6688 -0.6112 -0.5018
 9215SOL    HW129086   3.140   5.749   9.069  0.9184  0.1501 -1.7936
 9215SOL    HW229087   3.174   5.668   8.946  2.9221 -0.0968 -1.1157
 9216SOL     OW29088   4.243   7.687   2.610 -0.0234 -0.0840 -0.7164
 9216SOL    HW129089   4.320   7.720   2.655 -0.3836  1.2372 -1.0219
 9216SOL    HW229090   4.209   7.618   2.667 -0.8814  2.0095  1.4739
 9217SOL     OW29091   1.810   2.137   1.603 -0.4643 -0.0139 -0.1270
 9217SOL    HW129092   1.750   2.106   1.536  1.4958 -0.4698 -1.7605
 9217SOL    HW229093   1.832   2.226   1.576  0.0767 -0.0733  0.1114
 9218SOL     OW29094   4.302   1.749   5.722 -0.2351 -0.1835 -0.2298
 9218SOL    HW129095   4.297   1.673   5.664 -0.2395  1.5980 -2.7427
 9218SOL    HW229096   4.346   1.816   5.669 -0.0196  1.5090  1.9610
 9219SOL     OW29097   3.259   4.060   1.982  0.0434  0.2557  0.3367
 9219SOL    HW129098   3.302   3.975   1.987  1.0255  0.6649 -0.7884
 9219SOL    HW229099   3.166   4.040   1.977  0.2838 -0.7532 -0.1184
 9220SOL     OW29100   3.085   0.757   6.974  0.0361 -0.2933  0.1212
 9220SOL    HW129101   3.058   0.666   6.972 -1.0381  0.0267 -0.6919
 9220SOL    HW229102   3.009   0.806   6.944  0.7170  0.8445  0.1805
 9221SOL     OW29103   7.568   1.364   3.898  0.0266  1.0987  0.3891
 9221SOL    HW129104   7.604   1.291   3.848 -1.9352 -0.4271  1.0593
 9221SOL    HW229105   7.596   1.348   3.988 -0.4701  1.1262  0.5524
 9222SOL     OW29106   0.557   0.974   7.876  0.2663  0.1038 -0.2890
 9222SOL    HW129107   0.609   1.021   7.941  0.0992  0.0060 -0.0811
 9222SOL    HW229108   0.552   0.884   7.910  1.8547 -0.4594 -1.4302
 9223SOL     OW29109   7.664   3.873   4.191 -0.0558  0.1346 -0.0573
 9223SOL    HW129110   7.578   3.877   4.233 -0.0580  0.2083 -0.0688
 9223SOL    HW229111   7.645   3.849   4.101 -0.1445  1.1641 -0.3223
 9224SOL     OW29112   2.122   0.439   2.566  0.1567  0.2819  0.3052
 9224SOL    HW129113   2.062   0.429   2.639 -0.0750 -0.4927  0.0264
 9224SOL    HW229114   2.144   0.349   2.541  0.3911  0.5379 -0.4420
 9225SOL     OW29115   7.750   4.604  12.382  0.2018 -0.0311  0.1744
 9225SOL    HW129116   7.817   4.540  12.355  0.8423  0.7763 -0.1882
 9225SOL    HW229117   7.745   4.666  12.309 -0.7619  0.0740  0.3114
 9226SOL     OW29118   5.713   2.178  10.421 -0.1066  0.1880 -0.3136
 9226SOL    HW129119   5.702   2.273  10.427 -1.0051  0.0342  0.5563
 9226SOL    HW229120   5.654   2.142  10.487  0.4887 -0.9689 -0.3882
 9227SOL     OW29121   5.118   4.458  12.388 -0.4477  0.0872 -0.5770
 9227SOL    HW129122   5.074   4.475  12.304  0.5355 -0.9982 -1.3379
 9227SOL    HW229123   5.162   4.540  12.409 -1.5443  0.7002 -0.5740
 9228SOL     OW29124   4.679   7.473   3.337 -0.5157  0.0450  0.5702
 9228SOL    HW129125   4.767   7.435   3.334 -0.4524  0.2464 -0.3720
 9228SOL    HW229126   4.689   7.559   3.296 -0.9831  0.4372  1.2550
 9229SOL     OW29127   5.210   3.986   2.955 -0.3042  0.1971 -0.4208
 9229SOL    HW129128   5.181   4.077   2.964  0.0087  0.2252  0.4543
 9229SOL    HW229129   5.297   3.992   2.915  0.3732  0.4023  0.9996
 9230SOL     OW29130   7.569   3.216   0.551 -0.0241  0.1630  0.2165
 9230SOL    HW129131   7.515   3.212   0.472  0.9983 -1.3609 -0.4376
 9230SOL    HW229132   7.564   3.128   0.588  1.5327  0.1510  0.4548
 9231SOL     OW29133   0.073   3.627   9.174 -0.3647 -0.1404  0.2491
 9231SOL    HW129134   0.043   3.673   9.252 -0.1261 -0.6497  0.6497
 9231SOL    HW229135   0.044   3.681   9.101 -1.4360 -0.1339  0.6537
 9232SOL     OW29136   7.939   0.724   4.634 -0.0193  0.1275  0.2227
 9232SOL    HW129137   7.889   0.643   4.649 -1.5892  1.1947  0.9662
 9232SOL    HW229138   7.953   0.760   4.721 -3.1363  2.8126 -0.1715
 9233SOL     OW29139   6.623   1.690  11.824  0.1239 -0.0262  0.5006
 9233SOL    HW129140   6.624   1.770  11.877  0.8328  1.2825 -1.3743
 9233SOL    HW229141   6.698   1.640  11.854 -0.3292 -0.0252  1.6957
 9234SOL     OW29142   6.216   6.045   3.958  0.5409 -0.2104 -0.0337
 9234SOL    HW129143   6.238   6.088   3.876 -0.0417  2.1509  0.9439
 9234SOL    HW229144   6.214   5.952   3.938 -1.6652  0.3773 -3.2201
 9235SOL     OW29145   2.172   2.597  11.343 -0.6123  0.2841 -0.2612
 9235SOL    HW129146   2.083   2.601  11.378 -0.4716 -0.6281  0.2206
 9235SOL    HW229147   2.220   2.663  11.393 -0.8880  0.3882 -0.1312
 9236SOL     OW29148   5.654   2.263   0.968 -0.3987  0.1857  0.3999
 9236SOL    HW129149   5.719   2.271   0.899 -0.5576 -1.8636 -0.0642
 9236SOL    HW229150   5.700   2.291   1.048  0.2466  1.1244 -0.2870
 9237SOL     OW29151   7.940   3.953   8.791  0.3741 -0.6722 -0.4272
 9237SOL    HW129152   7.855   3.920   8.761 -0.0562  0.3866 -0.4088
 9237SOL    HW229153   7.973   4.005   8.718  1.1601 -1.3146 -0.5469
 9238SOL     OW29154   1.117   1.843   2.683 -0.5562 -0.6109 -0.4078
 9238SOL    HW129155   1.118   1.939   2.671  0.3299 -0.2329  2.1279
 9238SOL    HW229156   1.125   1.831   2.777  0.0061 -3.2253 -0.7322
 9239SOL     OW29157   2.183   2.442   3.473  0.4146  0.1442 -0.0218
 9239SOL    HW129158   2.126   2.404   3.406 -0.5426  0.4577  0.5945
 9239SOL    HW229159   2.261   2.468   3.425  0.0171 -0.2299 -0.9045
 9240SOL     OW29160   4.987   5.197   4.516 -0.0472 -0.3622 -0.0903
 9240SOL    HW129161   5.074   5.203   4.555 -0.5912  1.4123  0.9315
 9240SOL    HW229162   4.927   5.192   4.590 -0.8976 -0.4134 -0.7626
 9241SOL     OW29163   3.273   6.649   8.100 -0.1352  0.1601  0.0630
 9241SOL    HW129164   3.278   6.628   8.193  0.3587 -0.7676 -0.1645
 9241SOL    HW229165   3.349   6.605   8.062 -0.5758  0.1731 -0.8442
 9242SOL     OW29166   1.164   4.179   2.998  0.2917  0.5414  0.4381
 9242SOL    HW129167   1.198   4.205   3.083  0.0903  0.9351  0.4012
 9242SOL    HW229168   1.173   4.083   2.996  1.3036  0.6183  0.4671
 9243SOL     OW29169   0.442   0.719   6.891  0.1903  0.5809  0.0612
 9243SOL    HW129170   0.397   0.797   6.925 -0.0186  0.3873  0.2268
 9243SOL    HW229171   0.374   0.653   6.884  0.0112  0.9147 -1.7414
 9244SOL     OW29172   6.994   6.023   3.034  0.0943  0.4743 -0.7279
 9244SOL    HW129173   6.969   6.113   3.012 -0.1906  0.5569 -0.0680
 9244SOL    HW229174   6.967   5.971   2.957  0.5509  0.9881 -1.2487
 9245SOL     OW29175   2.162   4.664   2.857 -0.0424 -0.4363 -0.0532
 9245SOL    HW129176   2.113   4.746   2.862 -0.4246 -0.5597 -1.3705
 9245SOL    HW229177   2.139   4.628   2.771  1.6526 -0.9384 -0.3321
 9246SOL     OW29178   6.340   7.734  11.932  0.2044  0.0846  0.4653
 9246SOL    HW129179   6.320   7.697  11.845 -1.8318  1.2835  0.3461
 9246SOL    HW229180   6.364   7.659  11.985  1.8345 -0.6457 -1.2063
 9247SOL     OW29181   3.529   5.006   5.253  0.0265 -0.0195  0.0295
 9247SOL    HW129182   3.574   5.028   5.335  0.1346 -0.9483  0.2291
 9247SOL    HW229183   3.436   5.008   5.275  0.0603 -0.3830  0.2039
 9248SOL     OW29184   3.587   4.416   7.919  0.0866  0.0876  0.7480
 9248SOL    HW129185   3.644   4.394   7.992 -0.3896  1.1097  1.4519
 9248SOL    HW229186   3.539   4.335   7.901 -0.0083 -0.1002  1.7709
 9249SOL     OW29187   0.385   5.531   0.027  0.0356  0.3857 -0.0445
 9249SOL    HW129188   0.317   5.536  -0.040  1.9410  1.8335 -1.9997
 9249SOL    HW229189   0.384   5.617   0.069  0.2666  0.2032  0.3461
 9250SOL     OW29190   2.914   3.971   5.441  0.0738 -0.4751 -0.4201
 9250SOL    HW129191   2.919   3.891   5.388 -0.3491 -1.2786  0.7190
 9250SOL    HW229192   2.829   3.965   5.485 -0.1752  0.8503 -0.6752
 9251SOL     OW29193   6.153   6.139   4.179 -0.0261 -0.2379  0.5026
 9251SOL    HW129194   6.164   6.089   4.098 -0.0548 -1.2321  1.0967
 9251SOL    HW229195   6.101   6.215   4.154 -0.5173 -0.8273 -0.3083
 9252SOL     OW29196   3.372   4.738  12.194 -0.2336  0.2169  0.4705
 9252SOL    HW129197   3.288   4.768  12.229 -0.7524 -0.1631 -0.4281
 9252SOL    HW229198   3.350   4.693  12.113  0.8726  0.4295  0.0284
 9253SOL     OW29199   5.365   3.308   7.415 -0.0417  0.5728 -0.3087
 9253SOL    HW129200   5.323   3.378   7.366 -0.3534  0.5207 -0.1196
 9253SOL    HW229201   5.322   3.310   7.501 -0.7225 -0.4645 -0.6117
 9254SOL     OW29202   4.356   0.502   5.206 -0.0660  0.3085 -0.3128
 9254SOL    HW129203   4.304   0.442   5.151 -0.1902 -0.0914  0.2367
 9254SOL    HW229204   4.396   0.445   5.272  0.1004  0.7884 -0.0001
 9255SOL     OW29205   7.676   7.706   7.550 -0.3710 -0.2714  1.2073
 9255SOL    HW129206   7.737   7.722   7.478  0.9728 -1.1741  2.0988
 9255SOL    HW229207   7.681   7.785   7.603 -0.4098 -0.1174  0.9852
 9256SOL     OW29208   0.377   1.340   0.604 -0.2311 -0.2304  0.3800
 9256SOL    HW129209   0.420   1.395   0.669  0.7195  0.2603 -0.6297
 9256SOL    HW229210   0.387   1.251   0.637  1.4304 -0.1100  0.2490
 9257SOL     OW29211   1.530   3.588   3.873  0.1862 -0.3534 -0.6013
 9257SOL    HW129212   1.460   3.588   3.938  3.3157 -0.8514  3.1572
 9257SOL    HW229213   1.508   3.516   3.813 -2.2893 -0.6997  0.6186
 9258SOL     OW29214   7.462   3.295   4.718 -0.4610 -0.1373 -0.0167
 9258SOL    HW129215   7.489   3.300   4.627  2.4218  0.9998  0.7835
 9258SOL    HW229216   7.516   3.226   4.756  0.8973  1.6343  1.4895
 9259SOL     OW29217   5.541   1.564   6.931  0.3665 -0.6949 -0.5801
 9259SOL    HW129218   5.461   1.542   6.979  1.2571 -1.4026  0.6602
 9259SOL    HW229219   5.579   1.479   6.909  2.6145 -0.5347  2.0964
 9260SOL     OW29220   6.090   4.437   4.933  0.0959  0.1292  0.4123
 9260SOL    HW129221   6.181   4.419   4.909 -0.7333 -2.0731 -1.4511
 9260SOL    HW229222   6.068   4.516   4.885 -0.0649 -1.5428 -2.5029
 9261SOL     OW29223   6.821   2.329   2.910 -0.0243  0.0075  0.2851
 9261SOL    HW129224   6.824   2.234   2.909 -0.1025  0.0042 -0.7936
 9261SOL    HW229225   6.900   2.356   2.957  1.7560 -0.5502 -2.2235
 9262SOL     OW29226   5.329   2.582   5.569  0.0080  0.5147 -0.4025
 9262SOL    HW129227   5.268   2.516   5.536 -0.6660  0.9443 -0.0536
 9262SOL    HW229228   5.358   2.629   5.490 -0.1794  0.3552 -0.5662
 9263SOL     OW29229   5.242   6.541   6.158 -0.2310  0.5645  0.4397
 9263SOL    HW129230   5.284   6.560   6.074  1.7749  0.3958  1.3437
 9263SOL    HW229231   5.255   6.448   6.171 -0.5724  0.5795  0.9257
 9264SOL     OW29232   5.139   5.573   1.592  0.4827 -0.2285  0.0658
 9264SOL    HW129233   5.111   5.660   1.564  1.6368  0.2783  0.4372
 9264SOL    HW229234   5.059   5.531   1.624  0.2036  1.3833  1.6491
 9265SOL     OW29235   6.177   3.065   6.362  0.1752  0.4963 -0.1929
 9265SOL    HW129236   6.238   3.097   6.296 -1.6083  2.2675 -1.1036
 9265SOL    HW229237   6.123   3.141   6.383 -1.1353 -0.7588  1.2179
 9266SOL     OW29238   7.465   0.704   9.926  0.2155  0.5428 -0.2358
 9266SOL    HW129239   7.477   0.759  10.003 -0.1238  1.2656 -0.6946
 9266SOL    HW229240   7.387   0.652   9.945  0.5862  0.1515  0.2329
 9267SOL     OW29241   3.572   4.054  11.422 -0.0929  0.1498 -0.3818
 9267SOL    HW129242   3.500   4.012  11.374 -0.1828 -0.8119  0.5654
 9267SOL    HW229243   3.556   4.032  11.514  1.1289  0.3519 -0.1054
 9268SOL     OW29244   1.265   5.504   1.344 -0.5357 -0.0150  0.0606
 9268SOL    HW129245   1.329   5.555   1.394 -0.2543  0.2784 -0.5905
 9268SOL    HW229246   1.220   5.569   1.290 -1.9526 -0.0870  1.0790
 9269SOL     OW29247   2.456   6.268   6.046 -0.7372  0.1567  0.3581
 9269SOL    HW129248   2.541   6.235   6.074 -0.8920  0.5323  1.2882
 9269SOL    HW229249   2.475   6.316   5.965 -0.2974 -0.9666 -0.2296
 9270SOL     OW29250   1.132   1.868   7.627 -0.2549  0.3022  0.1791
 9270SOL    HW129251   1.153   1.893   7.717 -0.5303 -1.2455  0.7075
 9270SOL    HW229252   1.087   1.784   7.636  1.3712 -0.8281 -1.5104
 9271SOL     OW29253   1.540   5.468   6.279 -0.0742 -0.2278 -0.1253
 9271SOL    HW129254   1.610   5.414   6.242  2.0132  1.0510  1.7608
 9271SOL    HW229255   1.529   5.539   6.216  0.6714 -0.1707 -0.1958
 9272SOL     OW29256   4.694   2.838   8.431  0.5019  0.1045  0.3858
 9272SOL    HW129257   4.729   2.749   8.424  1.3589  0.4857 -0.3396
 9272SOL    HW229258   4.754   2.891   8.379 -0.5999  0.9509 -0.0398
 9273SOL     OW29259   6.508   3.682   5.401 -0.2794  0.1984 -0.1431
 9273SOL    HW129260   6.556   3.694   5.319  0.6783  0.0523  0.3821
 9273SOL    HW229261   6.477   3.591   5.397 -0.4604  0.2731 -0.4589
 9274SOL     OW29262   5.577   6.762  11.349 -0.2707 -0.5769 -0.4093
 9274SOL    HW129263   5.508   6.740  11.411  1.4584 -0.7874  1.5624
 9274SOL    HW229264   5.623   6.680  11.334  0.0460 -0.2896 -1.0505
 9275SOL     OW29265   3.762   1.767   5.780  0.2658  0.5177 -0.0335
 9275SOL    HW129266   3.758   1.720   5.862  0.4090  1.0798  0.3039
 9275SOL    HW229267   3.855   1.789   5.769  0.1331  1.1774  0.0885
 9276SOL     OW29268   0.307   4.134   7.954  0.0214  0.4009 -0.1432
 9276SOL    HW129269   0.254   4.057   7.974  1.9434 -1.0575 -0.3927
 9276SOL    HW229270   0.296   4.191   8.030 -1.8319  0.1579 -0.1720
 9277SOL     OW29271   4.542   5.913   9.773 -0.0913  0.1326 -0.0544
 9277SOL    HW129272   4.504   6.000   9.783 -0.3946 -0.0770  0.6662
 9277SOL    HW229273   4.623   5.928   9.724 -0.1743  0.8111  0.0061
 9278SOL     OW29274   5.495   1.877   9.407 -0.3902 -0.3093 -0.0786
 9278SOL    HW129275   5.513   1.823   9.483 -1.4526 -0.7016 -0.0799
 9278SOL    HW229276   5.425   1.831   9.361 -0.8993  0.7512 -0.4075
 9279SOL     OW29277   3.864   7.272  10.102 -0.1324 -0.0672 -1.0574
 9279SOL    HW129278   3.789   7.289  10.159  1.6869  3.0592  0.7026
 9279SOL    HW229279   3.837   7.306  10.017 -0.2212  2.6897 -0.0271
 9280SOL     OW29280   6.742   6.771   7.284 -0.1527  0.0329  0.0844
 9280SOL    HW129281   6.695   6.799   7.205 -0.4331  0.7028  0.4784
 9280SOL    HW229282   6.709   6.683   7.302  1.2101 -0.8639 -1.5482
 9281SOL     OW29283   1.879   6.735  11.197 -0.0762  0.6663 -0.2120
 9281SOL    HW129284   1.801   6.787  11.217 -0.5173  0.5074 -1.4455
 9281SOL    HW229285   1.847   6.664  11.141  0.6458 -0.5046  0.7921
 9282SOL     OW29286   2.901   0.540   1.688 -0.2902 -0.1920  0.3986
 9282SOL    HW129287   2.814   0.522   1.725 -0.6677  1.2034  0.2444
 9282SOL    HW229288   2.885   0.562   1.596  0.1059  0.9038  0.5692
 9283SOL     OW29289   2.923   3.916  11.945 -0.2358 -0.0018 -0.0970
 9283SOL    HW129290   2.944   3.824  11.930 -0.7024 -0.0469 -0.5036
 9283SOL    HW229291   2.879   3.917  12.030  0.4989 -0.0398  0.2910
 9284SOL     OW29292   6.601   6.023   0.660  0.4115 -0.2234  0.2102
 9284SOL    HW129293   6.621   6.105   0.614 -0.2871  0.7574  1.5798
 9284SOL    HW229294   6.507   6.009   0.644  0.6642 -1.1163 -0.5501
 9285SOL     OW29295   0.943   1.425  10.740  0.2196 -0.0384  0.3417
 9285SOL    HW129296   0.964   1.421  10.646  0.0093  1.6175  0.1930
 9285SOL    HW229297   1.000   1.494  10.774 -0.9651  0.6099  1.0709
 9286SOL     OW29298   0.504   3.760   9.319  0.0375  0.2314  0.0653
 9286SOL    HW129299   0.479   3.828   9.257 -0.1015 -0.6526 -0.8856
 9286SOL    HW229300   0.509   3.680   9.266 -0.1726 -0.5746  1.2146
 9287SOL     OW29301   7.287   4.676  10.590  0.0712  0.5867  0.3092
 9287SOL    HW129302   7.242   4.758  10.571  0.9713  1.1352  0.5148
 9287SOL    HW229303   7.308   4.640  10.504 -0.5744  0.4138  0.2125
 9288SOL     OW29304   2.289   2.535   3.066 -0.1962  0.0514  0.0306
 9288SOL    HW129305   2.372   2.540   3.018 -0.7764 -1.5458 -1.2277
 9288SOL    HW229306   2.314   2.512   3.155  0.6913 -1.5555 -0.5978
 9289SOL     OW29307   3.503   2.863   5.898  0.3869 -0.3113  0.2110
 9289SOL    HW129308   3.449   2.879   5.976  0.1542  0.9624 -0.1969
 9289SOL    HW229309   3.545   2.778   5.916  0.9295  0.2921  2.0637
 9290SOL     OW29310   1.863   0.393   0.643 -0.1513  0.3255 -0.3147
 9290SOL    HW129311   1.956   0.395   0.665  0.4137 -1.5878 -2.2167
 9290SOL    HW229312   1.828   0.319   0.693 -0.4389  0.4518 -0.3259
 9291SOL     OW29313   0.499   1.150   3.085  0.1237 -0.3106  0.3010
 9291SOL    HW129314   0.567   1.216   3.070  0.6383 -1.1365 -1.2506
 9291SOL    HW229315   0.433   1.195   3.138  1.3908  0.8196  0.9700
 9292SOL     OW29316   0.140   6.038   0.410  0.1277 -0.0038 -0.3447
 9292SOL    HW129317   0.164   6.115   0.358  0.5327 -0.1129 -0.3155
 9292SOL    HW229318   0.077   6.072   0.474  0.5278  0.3647 -0.1402
 9293SOL     OW29319   5.606   3.687   8.213  0.2826  0.1468  0.0675
 9293SOL    HW129320   5.541   3.617   8.206  0.9970 -0.4617 -0.5554
 9293SOL    HW229321   5.679   3.647   8.261  0.6346  0.5042 -0.1664
 9294SOL     OW29322   2.419   5.041   8.713  0.4315  0.1635  0.0889
 9294SOL    HW129323   2.359   4.981   8.668 -0.1460 -0.3039  1.4487
 9294SOL    HW229324   2.384   5.128   8.695  0.2536 -0.0043 -0.4158
 9295SOL     OW29325   4.594   3.626  10.697  0.1643 -0.1529  0.1406
 9295SOL    HW129326   4.522   3.569  10.726  0.2960  0.1993  1.1826
 9295SOL    HW229327   4.621   3.673  10.776 -0.0571  1.5064 -0.7245
 9296SOL     OW29328   1.818   5.448   3.723 -0.1585  0.4863 -0.0023
 9296SOL    HW129329   1.852   5.485   3.805  1.3686  2.9965 -1.6174
 9296SOL    HW229330   1.756   5.380   3.750  3.3053 -1.7843  3.2324
 9297SOL     OW29331   5.099   3.539   3.992 -0.1250 -0.3061 -0.0960
 9297SOL    HW129332   5.050   3.470   4.036  0.0896 -0.1163  0.4515
 9297SOL    HW229333   5.121   3.502   3.907 -0.4086 -0.7404  0.0154
 9298SOL     OW29334   5.490   0.301  10.362  0.0152 -1.0123 -0.1534
 9298SOL    HW129335   5.474   0.353  10.441 -0.2297  0.5371 -1.1806
 9298SOL    HW229336   5.420   0.327  10.302  0.5914 -1.6657 -1.1260
 9299SOL     OW29337   7.722   2.654   9.890  0.5033 -0.1843  0.5255
 9299SOL    HW129338   7.733   2.596   9.966  0.0651 -2.2125 -0.8810
 9299SOL    HW229339   7.667   2.604   9.830 -0.6548  2.0979 -0.4161
 9300SOL     OW29340   6.333   3.590   6.144  0.1823 -0.3493  0.2697
 9300SOL    HW129341   6.314   3.641   6.222 -1.6030  0.2020 -0.4757
 9300SOL    HW229342   6.381   3.650   6.087 -2.2030  0.6973 -0.7438
 9301SOL     OW29343   2.395   1.388  10.172 -0.2937 -0.4529 -0.2732
 9301SOL    HW129344   2.346   1.328  10.228 -0.0101 -0.3316  0.1057
 9301SOL    HW229345   2.460   1.428  10.230  0.8350 -1.2532 -0.9331
 9302SOL     OW29346   2.380   0.491  11.239 -0.0933  0.0250 -0.5012
 9302SOL    HW129347   2.470   0.520  11.222 -0.6340  0.8387 -2.1213
 9302SOL    HW229348   2.384   0.452  11.327  1.4187  1.8788  0.3276
 9303SOL     OW29349   6.999   6.197   2.562  0.1710 -0.1145  0.1234
 9303SOL    HW129350   7.039   6.195   2.649 -0.4858 -1.4735  0.4080
 9303SOL    HW229351   7.010   6.109   2.527 -2.0025 -0.3979 -0.0247
 9304SOL     OW29352   5.986   6.825   3.636  0.4557  0.2624 -0.4815
 9304SOL    HW129353   5.969   6.901   3.579 -0.5951 -1.4564 -2.6133
 9304SOL    HW229354   6.072   6.794   3.609  1.3080  1.1823  1.0519
 9305SOL     OW29355   1.257   2.330   0.969 -0.3002 -0.0221  0.8800
 9305SOL    HW129356   1.346   2.364   0.979 -0.3444  0.4190 -0.1263
 9305SOL    HW229357   1.226   2.317   1.059  0.2458  1.2512  1.2767
 9306SOL     OW29358   3.681   6.879   4.891  0.1413 -0.3711 -0.2454
 9306SOL    HW129359   3.613   6.827   4.848  0.3894 -0.2997 -0.7276
 9306SOL    HW229360   3.718   6.933   4.821 -0.3225  0.6888  0.2956
 9307SOL     OW29361   7.427   3.540   3.106  0.3787  0.1560 -0.4136
 9307SOL    HW129362   7.421   3.611   3.170  1.1672  0.3403 -0.5368
 9307SOL    HW229363   7.365   3.474   3.138 -0.3408  0.8709 -0.2763
 9308SOL     OW29364   7.122   0.208   1.358  0.0319 -0.1589  0.1951
 9308SOL    HW129365   7.190   0.218   1.425 -0.1171 -0.9858  0.4818
 9308SOL    HW229366   7.122   0.291   1.311  0.8335  0.0648  0.5764
 9309SOL     OW29367   0.815   7.444  10.733 -0.2529 -0.3234 -0.0320
 9309SOL    HW129368   0.901   7.417  10.764  0.3265 -1.0085 -2.0777
 9309SOL    HW229369   0.759   7.367  10.746 -0.9667  0.5434  2.5372
 9310SOL     OW29370   1.863   0.641   9.088 -0.5440 -0.1645  0.3248
 9310SOL    HW129371   1.818   0.612   9.008 -0.7054  0.2277  0.2707
 9310SOL    HW229372   1.956   0.634   9.067 -0.5286  2.6619 -0.9464
 9311SOL     OW29373   1.644   0.991  11.087  0.0405 -0.2752  0.3344
 9311SOL    HW129374   1.653   1.060  11.152 -1.8434 -0.0930  0.4751
 9311SOL    HW229375   1.670   1.032  11.005 -1.2152  0.7029  0.3853
 9312SOL     OW29376   2.696   6.141   0.902  0.0055 -0.1681 -0.4801
 9312SOL    HW129377   2.746   6.213   0.863 -3.0679  1.3790 -1.9281
 9312SOL    HW229378   2.639   6.110   0.832  0.3038 -3.2351  0.4753
 9313SOL     OW29379   3.780   7.222   2.274  0.2348  0.9162 -0.0289
 9313SOL    HW129380   3.695   7.216   2.230 -0.3678  0.9520  1.1018
 9313SOL    HW229381   3.820   7.302   2.239  0.1801  0.4523 -1.1882
 9314SOL     OW29382   6.951   7.549   9.037  0.4258  0.1011  0.2198
 9314SOL    HW129383   6.881   7.489   9.012  1.5152 -1.5216  0.8761
 9314SOL    HW229384   6.932   7.572   9.127  0.7018 -0.3359  0.3966
 9315SOL     OW29385   3.885   3.296   5.055 -0.1248  0.7010  0.0455
 9315SOL    HW129386   3.834   3.220   5.028  0.9421  0.0564 -0.1851
 9315SOL    HW229387   3.971   3.283   5.015  0.5057  1.3164  1.1579
 9316SOL     OW29388   1.674   7.168   1.614 -0.5038 -0.2318 -1.0020
 9316SOL    HW129389   1.755   7.130   1.580 -1.1104 -2.0470 -0.5362
 9316SOL    HW229390   1.613   7.167   1.540 -0.0036  1.5560 -1.4787
 9317SOL     OW29391   5.162   2.846  10.609  0.2824  0.3379 -0.7805
 9317SOL    HW129392   5.189   2.845  10.517 -1.2374  3.6856 -1.4287
 9317SOL    HW229393   5.208   2.921  10.646 -0.2579 -0.0807  0.7978
 9318SOL     OW29394   7.556   3.994  10.751 -0.4630  0.1710  0.3736
 9318SOL    HW129395   7.485   3.970  10.811 -1.1576 -0.0566 -0.5367
 9318SOL    HW229396   7.635   3.967  10.798 -1.1075 -2.4763  0.1210
 9319SOL     OW29397   7.851   1.469   2.978 -0.0475 -0.2336  0.5541
 9319SOL    HW129398   7.843   1.562   2.953  0.2820  0.0653  1.5111
 9319SOL    HW229399   7.890   1.427   2.902  0.8152  0.6204  0.5039
 9320SOL     OW29400   6.702   1.721   0.318  0.8534 -0.3547 -0.2569
 9320SOL    HW129401   6.709   1.813   0.342 -1.0458 -0.3555  0.4844
 9320SOL    HW229402   6.733   1.673   0.395  1.3563 -0.3299 -0.4463
 9321SOL     OW29403   6.175   2.504   7.990 -0.1939 -0.0727 -0.7969
 9321SOL    HW129404   6.176   2.510   7.894 -0.8461  0.7584 -0.7626
 9321SOL    HW229405   6.219   2.585   8.018  0.1108 -0.3781 -0.3930
 9322SOL     OW29406   4.575   3.383   6.543 -0.0340  0.2455  0.1402
 9322SOL    HW129407   4.626   3.463   6.550  0.3868 -0.0035 -0.0354
 9322SOL    HW229408   4.624   3.329   6.481 -0.7975  0.2265 -0.4673
 9323SOL     OW29409   1.556   4.258   7.046 -0.2896 -0.3022  0.3896
 9323SOL    HW129410   1.651   4.245   7.038 -0.1594 -0.0257  1.3590
 9323SOL    HW229411   1.530   4.296   6.962  0.6454  0.6453  0.5011
 9324SOL     OW29412   1.147   4.335  11.325 -0.7911  0.2714 -0.1127
 9324SOL    HW129413   1.160   4.279  11.249 -0.8760  1.6394 -1.1834
 9324SOL    HW229414   1.139   4.275  11.399 -0.7056 -1.0928 -1.1812
 9325SOL     OW29415   0.993   4.364   7.840  0.3216 -0.1345 -0.0677
 9325SOL    HW129416   0.998   4.376   7.935  3.0947 -2.1384  0.1449
 9325SOL    HW229417   0.968   4.273   7.828 -0.0383  0.1045 -1.3030
 9326SOL     OW29418   1.066   1.857  10.537  0.1574 -0.4228 -0.1570
 9326SOL    HW129419   0.976   1.873  10.566  0.4777  1.6967 -0.1598
 9326SOL    HW229420   1.096   1.785  10.591 -1.3263 -0.7354  0.3137
 9327SOL     OW29421   2.511   3.321   6.366 -0.4905 -0.0143 -0.5435
 9327SOL    HW129422   2.566   3.387   6.323 -1.0907 -0.4565 -2.0779
 9327SOL    HW229423   2.456   3.287   6.295 -1.7361 -0.5953  0.6610
 9328SOL     OW29424   2.930   6.667   7.846  0.2289  0.1528  0.0418
 9328SOL    HW129425   3.017   6.707   7.846  0.6093 -0.6522 -0.0542
 9328SOL    HW229426   2.913   6.649   7.939  1.3979 -2.2356 -0.1250
 9329SOL     OW29427   7.107   5.156   6.549 -0.2583  0.1834  0.7754
 9329SOL    HW129428   7.182   5.096   6.544  0.3458  0.9954 -0.8470
 9329SOL    HW229429   7.103   5.194   6.462 -1.3415  1.6433  1.4436
 9330SOL     OW29430   1.327   7.842   0.598 -0.0821  0.1175  0.1810
 9330SOL    HW129431   1.357   7.758   0.564  1.9492  0.0424  1.9353
 9330SOL    HW229432   1.315   7.896   0.521  0.7928 -1.1008 -0.8623
 9331SOL     OW29433   1.337   1.528  10.146  0.3847  0.1554 -0.0124
 9331SOL    HW129434   1.333   1.538  10.241 -1.0346 -0.2061 -0.0227
 9331SOL    HW229435   1.254   1.564  10.114  0.1449 -1.1850 -0.9712
 9332SOL     OW29436   5.740   7.500   0.166 -0.1322 -0.6857  0.3342
 9332SOL    HW129437   5.674   7.455   0.219 -0.0516  0.2908  1.3104
 9332SOL    HW229438   5.692   7.532   0.090 -0.6532 -0.5476  0.7142
 9333SOL     OW29439   6.559   7.002   8.862 -0.4737 -0.4755 -0.5219
 9333SOL    HW129440   6.590   7.076   8.914 -0.5141 -0.7887 -0.0446
 9333SOL    HW229441   6.468   7.023   8.840 -0.2389 -0.0088 -1.0895
 9334SOL     OW29442   5.288   7.771   8.704  0.4824 -0.6366  0.3207
 9334SOL    HW129443   5.288   7.711   8.629  1.3503 -0.8807  0.5077
 9334SOL    HW229444   5.206   7.820   8.695  0.4971 -0.7695 -0.7053
 9335SOL     OW29445   4.391   6.053   3.112  0.2197 -0.0654 -0.0948
 9335SOL    HW129446   4.451   6.037   3.185  1.3717  0.0902 -0.9779
 9335SOL    HW229447   4.337   5.974   3.107  1.0537 -0.6523  0.0525
 9336SOL     OW29448   5.327   1.540   3.485  0.1696  0.5995  0.2723
 9336SOL    HW129449   5.373   1.465   3.447 -2.0516  0.3797 -2.3032
 9336SOL    HW229450   5.297   1.509   3.570  1.2145 -0.6183  0.2340
 9337SOL     OW29451   7.672   3.460   5.639 -0.4814 -0.1567  0.1072
 9337SOL    HW129452   7.752   3.467   5.692 -0.4796  0.2670  0.0528
 9337SOL    HW229453   7.700   3.415   5.560 -0.2346  0.2268 -0.0276
 9338SOL     OW29454   7.846   5.569   7.810 -0.5148  0.0012  0.0969
 9338SOL    HW129455   7.764   5.587   7.763 -0.5431  1.0147  0.5159
 9338SOL    HW229456   7.911   5.559   7.740 -0.4491  2.0411 -0.1965
 9339SOL     OW29457   5.501   3.347   3.792  0.2637  0.4054 -0.0784
 9339SOL    HW129458   5.588   3.345   3.831  2.2769  3.4229 -3.7016
 9339SOL    HW229459   5.513   3.311   3.704 -2.6774 -0.9499 -0.0372
 9340SOL     OW29460   2.242   3.927   1.027  0.1855  0.3357  0.3843
 9340SOL    HW129461   2.295   3.879   1.091 -1.6860 -0.4298  1.4177
 9340SOL    HW229462   2.306   3.982   0.980  1.6086  1.1502  3.0686
 9341SOL     OW29463   4.379   3.604   5.956 -0.3116  0.5760 -0.1828
 9341SOL    HW129464   4.428   3.543   6.011 -0.2488 -0.1679 -1.0440
 9341SOL    HW229465   4.308   3.635   6.013 -0.7249 -0.7811  0.0948
 9342SOL     OW29466   5.364   5.765   5.878  0.1807  0.1099  0.0028
 9342SOL    HW129467   5.362   5.712   5.798 -0.0056  0.3094 -0.1262
 9342SOL    HW229468   5.378   5.702   5.949 -2.6664 -0.4886  0.1509
 9343SOL     OW29469   2.926   3.748   5.284 -0.0220  0.2213 -0.0707
 9343SOL    HW129470   2.962   3.660   5.298  2.1282  1.2673  1.4424
 9343SOL    HW229471   2.900   3.749   5.192  0.4480 -1.8021 -0.2734
 9344SOL     OW29472   5.784   6.554   8.615 -0.1678 -0.0757  0.1671
 9344SOL    HW129473   5.706   6.587   8.571  0.4403  1.6451  0.3173
 9344SOL    HW229474   5.855   6.610   8.583  0.9727 -1.4264  0.2403
 9345SOL     OW29475   3.591   5.363  11.987  0.0573  0.8610 -0.4226
 9345SOL    HW129476   3.614   5.456  11.987  1.4086  0.5446 -1.0468
 9345SOL    HW229477   3.634   5.327  11.910 -1.6090 -0.0384 -0.9966
 9346SOL     OW29478   4.687   4.201   9.316  0.5823 -0.1966  0.3356
 9346SOL    HW129479   4.778   4.231   9.312  0.8022 -0.7086  1.2383
 9346SOL    HW229480   4.663   4.212   9.408 -0.8000  1.4428 -0.1759
 9347SOL     OW29481   2.695   5.816   8.472  0.3128  0.4105  0.2264
 9347SOL    HW129482   2.623   5.790   8.529 -0.2858 -1.5343 -1.2966
 9347SOL    HW229483   2.733   5.733   8.442  2.8751  1.3762  0.5528
 9348SOL     OW29484   5.390   1.155   9.222  0.0418  0.1927  0.2983
 9348SOL    HW129485   5.333   1.128   9.294 -0.2428 -1.0606 -0.3592
 9348SOL    HW229486   5.361   1.243   9.200  0.8849  1.0864  2.4315
 9349SOL     OW29487   2.337   6.175   2.064  0.0300 -0.3259  0.4110
 9349SOL    HW129488   2.429   6.160   2.084  0.1868  1.2215  0.9874
 9349SOL    HW229489   2.324   6.136   1.978  1.9129  1.7121 -0.9082
 9350SOL     OW29490   2.500   4.292   6.810  0.3622  0.2591  0.5110
 9350SOL    HW129491   2.587   4.256   6.828  0.1843 -0.1928  0.4937
 9350SOL    HW229492   2.454   4.287   6.894 -0.1717 -1.0143  0.1845
 9351SOL     OW29493   2.196   3.416   4.462  0.1028  0.4725 -0.1559
 9351SOL    HW129494   2.192   3.372   4.377 -1.4641 -0.5828  0.4222
 9351SOL    HW229495   2.277   3.383   4.502 -0.2189 -0.6704 -0.3961
 9352SOL     OW29496   7.546   2.789   8.531 -0.6537 -0.2092 -0.0256
 9352SOL    HW129497   7.574   2.880   8.519 -0.6056 -0.1476  0.5419
 9352SOL    HW229498   7.579   2.765   8.617 -2.3105 -0.1492  0.6462
 9353SOL     OW29499   0.700   7.329   1.860  0.0770 -0.2099 -0.6699
 9353SOL    HW129500   0.700   7.252   1.917 -1.7669  0.1656 -0.1092
 9353SOL    HW229501   0.769   7.385   1.896  0.4952 -0.9830 -0.2310
 9354SOL     OW29502   2.720   5.225  12.276  0.0268  0.5333 -0.2619
 9354SOL    HW129503   2.676   5.177  12.346 -0.1242 -0.3228 -0.9246
 9354SOL    HW229504   2.659   5.222  12.203  0.9178 -0.1241 -0.9923
 9355SOL     OW29505   0.352   7.510   8.160 -0.1927  0.5492  0.0609
 9355SOL    HW129506   0.321   7.582   8.216  0.0092  1.1245 -0.5511
 9355SOL    HW229507   0.432   7.480   8.203 -0.8721 -0.0742  0.9339
 9356SOL     OW29508   2.291   7.662   5.323 -0.1546 -0.2825 -0.4085
 9356SOL    HW129509   2.336   7.597   5.377  0.5611 -0.2324 -0.9272
 9356SOL    HW229510   2.231   7.706   5.383  0.0763 -0.7388  0.1711
 9357SOL     OW29511   4.951   7.663   1.436  0.2397 -0.0030  0.2375
 9357SOL    HW129512   4.886   7.656   1.505  0.4233 -0.3183  0.3793
 9357SOL    HW229513   5.012   7.592   1.453  0.2270 -0.1516 -0.3111
 9358SOL     OW29514   4.634   1.105   3.515 -0.2357 -0.3093 -0.0421
 9358SOL    HW129515   4.666   1.185   3.556 -2.8649  0.3152  0.9592
 9358SOL    HW229516   4.602   1.132   3.429 -2.4533  0.0676  0.8535
 9359SOL     OW29517   1.160   1.677   1.539 -0.3532  0.4061 -0.0057
 9359SOL    HW129518   1.253   1.672   1.518 -0.0122 -0.6419  1.5932
 9359SOL    HW229519   1.122   1.597   1.502 -0.3587  0.1961  0.4383
 9360SOL     OW29520   6.203   2.231   8.002  0.4918  0.4967 -0.6034
 9360SOL    HW129521   6.168   2.320   8.009  1.3799  0.8389 -0.3957
 9360SOL    HW229522   6.140   2.177   8.050 -0.2070  0.9605 -0.9725
 9361SOL     OW29523   1.450   6.567   0.926 -0.5214 -0.4271  0.0162
 9361SOL    HW129524   1.441   6.485   0.877  0.2804  0.5920 -1.9357
 9361SOL    HW229525   1.465   6.634   0.859 -3.1798  1.7117  1.3333
 9362SOL     OW29526   4.413   6.470   6.923  0.0432  0.7320  0.5675
 9362SOL    HW129527   4.496   6.517   6.931 -0.0536  0.9217  0.4681
 9362SOL    HW229528   4.365   6.490   7.004 -0.5130  1.8207 -0.0118
 9363SOL     OW29529   2.481   3.425   0.132  0.1387 -0.6606  0.1236
 9363SOL    HW129530   2.564   3.380   0.113  0.7365  0.4153  0.1274
 9363SOL    HW229531   2.482   3.436   0.227  1.2933  1.7382 -0.1044
 9364SOL     OW29532   3.286   7.005   4.865 -0.1868  0.1580 -0.5480
 9364SOL    HW129533   3.307   7.071   4.799  0.4589 -1.9396 -2.5360
 9364SOL    HW229534   3.192   6.990   4.855  0.0729 -0.8627 -1.7630
 9365SOL     OW29535   2.798   7.647   0.057 -0.5301  0.2473  0.4843
 9365SOL    HW129536   2.828   7.734   0.032 -0.7716  0.2715  0.2732
 9365SOL    HW229537   2.858   7.587   0.013  1.5676  0.3111  3.0504
 9366SOL     OW29538   3.679   3.795   4.838  0.1222 -0.8186 -0.4328
 9366SOL    HW129539   3.758   3.830   4.879  0.0129 -0.4512 -0.5366
 9366SOL    HW229540   3.611   3.859   4.859 -0.0036 -0.7949 -0.9175
 9367SOL     OW29541   4.895   6.472   1.121 -0.0782  0.0166  0.0314
 9367SOL    HW129542   4.847   6.554   1.109  0.8227  0.6084  0.3664
 9367SOL    HW229543   4.946   6.486   1.201  1.3866 -0.2248 -0.8339
 9368SOL     OW29544   2.615   4.628  11.680  0.0643  0.2213 -0.2324
 9368SOL    HW129545   2.707   4.627  11.653  0.7374  0.0207  1.9203
 9368SOL    HW229546   2.593   4.536  11.695 -0.1995  0.3456  0.1609
 9369SOL     OW29547   2.008   1.400   0.018  0.6094  0.1811  0.4361
 9369SOL    HW129548   1.944   1.329   0.015  1.0185 -0.2209  0.9213
 9369SOL    HW229549   2.084   1.365  -0.029  0.6976  0.4171  0.4003
 9370SOL     OW29550   5.419   3.171   3.000 -0.4708  0.5382  0.0703
 9370SOL    HW129551   5.436   3.265   3.005 -0.2307  0.5045 -0.0871
 9370SOL    HW229552   5.415   3.141   3.091 -0.0803  0.6162  0.1121
 9371SOL     OW29553   6.162   1.493  11.382 -0.4621 -0.1181 -0.5700
 9371SOL    HW129554   6.147   1.399  11.366  2.3378 -1.4185  2.9466
 9371SOL    HW229555   6.074   1.529  11.396 -1.5920 -2.2976 -1.5432
 9372SOL     OW29556   4.781   5.266   9.767 -0.1980  0.0218  0.0364
 9372SOL    HW129557   4.692   5.230   9.768 -1.2208  2.1397 -2.6173
 9372SOL    HW229558   4.769   5.359   9.789  1.4277  0.2675 -0.0071
 9373SOL     OW29559   0.289   6.746  12.450 -0.7085 -0.0794  0.2055
 9373SOL    HW129560   0.214   6.746  12.390 -0.6252 -0.2338  0.0973
 9373SOL    HW229561   0.255   6.780  12.532 -0.8235  0.1452  0.0662
 9374SOL     OW29562   4.217   6.340  11.994  0.0014  0.6171  0.3478
 9374SOL    HW129563   4.233   6.246  12.003  0.4634  0.7123  0.5687
 9374SOL    HW229564   4.225   6.356  11.900  0.4144  0.5180  0.3633
 9375SOL     OW29565   6.064   1.875   9.092 -0.5598 -0.6747 -0.2027
 9375SOL    HW129566   6.057   1.780   9.082  1.1876 -0.6025 -2.9151
 9375SOL    HW229567   6.004   1.910   9.027  0.7154  0.0278 -1.0352
 9376SOL     OW29568   7.834   7.923   2.405 -0.3600 -0.2880  0.0990
 9376SOL    HW129569   7.758   7.938   2.349 -0.6520 -2.6547 -0.2289
 9376SOL    HW229570   7.901   7.889   2.346  0.4815  0.4055  0.6395
 9377SOL     OW29571   1.697   6.662   3.688 -0.2513 -0.1353 -0.0961
 9377SOL    HW129572   1.680   6.672   3.782 -1.3046 -2.0626 -0.0219
 9377SOL    HW229573   1.778   6.711   3.673 -1.2546  2.0843  1.3338
 9378SOL     OW29574   1.879   0.799  10.104  0.3741  0.1539  0.8424
 9378SOL    HW129575   1.908   0.726  10.158 -1.2869 -2.4182 -1.4603
 9378SOL    HW229576   1.799   0.767  10.061  0.3462  2.8087 -1.3705
 9379SOL     OW29577   5.289   1.988   3.044  0.2030  0.4067 -0.2251
 9379SOL    HW129578   5.195   2.005   3.037  0.0286 -0.8355 -1.3089
 9379SOL    HW229579   5.320   1.990   2.954  0.9601 -0.5590  0.0009
 9380SOL     OW29580   4.504   3.778  10.464 -0.5240  0.0735 -0.1598
 9380SOL    HW129581   4.577   3.758  10.523  0.2204 -0.2843 -1.1733
 9380SOL    HW229582   4.448   3.837  10.515 -0.3430 -0.8698  1.1980
 9381SOL     OW29583   2.005   4.585   9.128 -0.3973 -0.0128 -0.1365
 9381SOL    HW129584   1.947   4.531   9.073  0.4372  1.3200 -2.4597
 9381SOL    HW229585   1.960   4.669   9.135 -0.4187 -0.1052  1.1890
 9382SOL     OW29586   5.589   6.205   4.236 -0.3549 -0.0007 -0.2164
 9382SOL    HW129587   5.627   6.118   4.227  1.1429  0.0780  3.4736
 9382SOL    HW229588   5.627   6.256   4.165  0.7115 -1.7224 -0.9399
 9383SOL     OW29589   2.516   2.561  11.597  0.2819  0.5822  0.2231
 9383SOL    HW129590   2.480   2.552  11.686  2.1591 -0.7747  0.9139
 9383SOL    HW229591   2.596   2.508  11.598 -0.2144 -0.3794 -2.6300
 9384SOL     OW29592   3.728   4.431   7.016 -0.3109  0.3605  0.0507
 9384SOL    HW129593   3.724   4.363   7.083 -1.8317  0.8076  0.4526
 9384SOL    HW229594   3.644   4.476   7.022  0.1267  1.4065 -1.1284
 9385SOL     OW29595   0.147   4.275   9.397 -0.0221 -0.2141 -0.7321
 9385SOL    HW129596   0.169   4.187   9.429  1.6402  0.8440  1.2609
 9385SOL    HW229597   0.122   4.323   9.475 -0.3981  1.2503 -1.7201
 9386SOL     OW29598   0.019   7.871  11.437 -0.7146  0.1992 -0.1155
 9386SOL    HW129599  -0.069   7.836  11.423  0.5063 -2.5293 -1.8926
 9386SOL    HW229600   0.045   7.835  11.522 -0.1587 -1.8242 -1.0946
 9387SOL     OW29601   2.075   5.252   0.240  0.5098 -0.3315 -0.0283
 9387SOL    HW129602   2.061   5.324   0.301  0.4894 -1.7842  1.7412
 9387SOL    HW229603   2.167   5.261   0.213  0.8356 -0.3015  1.0677
 9388SOL     OW29604   4.888   1.082   0.369  0.3565  0.0453 -0.7346
 9388SOL    HW129605   4.941   1.113   0.443 -0.1878  1.0447 -0.7541
 9388SOL    HW229606   4.939   1.009   0.333  1.1179  0.1892  0.0031
 9389SOL     OW29607   1.028   3.317   0.988 -0.3910 -0.1365 -0.3260
 9389SOL    HW129608   1.098   3.340   0.927 -1.0758  1.2989 -0.6045
 9389SOL    HW229609   0.964   3.270   0.935  0.2645 -1.3525 -0.0940
 9390SOL     OW29610   4.668   6.100   7.655 -0.2103  0.1270 -0.0723
 9390SOL    HW129611   4.721   6.157   7.600 -0.6670  0.7498  0.1303
 9390SOL    HW229612   4.726   6.075   7.727  0.2854 -0.4339 -0.6519
 9391SOL     OW29613   1.461   7.008   6.073  0.3300 -0.1703 -0.0341
 9391SOL    HW129614   1.385   7.048   6.116  1.0844  0.3408  0.8740
 9391SOL    HW229615   1.448   7.025   5.979  0.4160  1.9336  0.2760
 9392SOL     OW29616   7.645   5.403   9.973  0.4372  0.8651 -0.1288
 9392SOL    HW129617   7.724   5.396  10.028  0.7677  1.5372 -0.5082
 9392SOL    HW229618   7.616   5.493   9.985 -0.0272  0.7418 -0.3338
 9393SOL     OW29619   2.709   5.975   7.974  0.1714 -0.4112 -0.2320
 9393SOL    HW129620   2.763   5.916   8.026 -0.0681  0.2024  0.7390
 9393SOL    HW229621   2.771   6.025   7.921  0.4172 -1.0291 -0.5289
 9394SOL     OW29622   7.679   2.424   2.662  0.0122 -0.4865  0.2995
 9394SOL    HW129623   7.745   2.396   2.726  1.2852  0.7432 -0.4279
 9394SOL    HW229624   7.635   2.498   2.704  2.5103  1.9605 -1.0756
 9395SOL     OW29625   7.708   0.585   2.033 -0.1406 -0.0051  0.5969
 9395SOL    HW129626   7.745   0.628   2.110 -0.4809  0.7611  0.3364
 9395SOL    HW229627   7.653   0.651   1.992 -0.3015 -0.5409 -0.0745
 9396SOL     OW29628   1.005   2.576  11.809 -0.5393  0.8640  0.3915
 9396SOL    HW129629   1.041   2.649  11.861  0.9113  0.2062  0.3415
 9396SOL    HW229630   1.060   2.573  11.731 -0.2359 -0.6233  0.6427
 9397SOL     OW29631   3.047   0.575   5.872 -0.1466  0.1897 -0.2634
 9397SOL    HW129632   3.045   0.620   5.956 -1.9084 -1.1707  0.4652
 9397SOL    HW229633   3.065   0.484   5.893 -1.6550 -0.3714 -1.2255
 9398SOL     OW29634   7.767   2.740  11.702  0.4424 -0.3586  0.5508
 9398SOL    HW129635   7.848   2.731  11.753 -0.7887 -0.9220  2.5044
 9398SOL    HW229636   7.743   2.833  11.711  0.1919 -0.4726  1.0388
 9399SOL     OW29637   7.371   2.386   2.478  0.1002  0.2405  0.0115
 9399SOL    HW129638   7.326   2.468   2.496 -0.3463  0.3305 -1.3701
 9399SOL    HW229639   7.307   2.334   2.430  0.9386 -0.2652 -0.5841
 9400SOL     OW29640   7.179   4.767   6.702  0.3197 -0.2850 -0.2633
 9400SOL    HW129641   7.262   4.722   6.689 -0.6286 -1.7351 -1.8991
 9400SOL    HW229642   7.113   4.704   6.672 -1.3772  0.8181  0.9450
 9401SOL     OW29643   3.663   0.006   4.381  0.3675  0.0765  0.4363
 9401SOL    HW129644   3.628  -0.082   4.398 -0.2847  0.3354  0.4707
 9401SOL    HW229645   3.610   0.064   4.436  0.5150  0.5417  0.0955
 9402SOL     OW29646   6.292   7.360   6.729 -0.1155  0.6218  0.0034
 9402SOL    HW129647   6.221   7.361   6.793 -0.2362  1.0275 -0.1351
 9402SOL    HW229648   6.311   7.452   6.713 -1.0553  0.5718 -1.6271
 9403SOL     OW29649   5.203   3.325   2.901  0.1452 -0.1748  0.6457
 9403SOL    HW129650   5.268   3.384   2.939 -0.0820 -1.0422  2.5035
 9403SOL    HW229651   5.232   3.237   2.928 -1.0499 -0.6848  0.3443
 9404SOL     OW29652   5.591   1.154  11.805  0.3189  0.3507 -0.3059
 9404SOL    HW129653   5.605   1.249  11.803 -0.0330  0.4193  0.3920
 9404SOL    HW229654   5.516   1.142  11.863 -1.0150 -0.2040 -2.0758
 9405SOL     OW29655   3.086   4.925  11.482  0.3914 -0.0870  0.4377
 9405SOL    HW129656   3.087   4.852  11.544  2.0689 -0.1843  0.3512
 9405SOL    HW229657   3.010   4.908  11.426  0.1284 -1.1787  1.0940
 9406SOL     OW29658   7.450   0.284   2.258  0.3314 -0.2272  0.3376
 9406SOL    HW129659   7.391   0.344   2.303  0.1115 -0.0553 -0.1803
 9406SOL    HW229660   7.395   0.236   2.197  0.9647  1.0165 -1.2648
 9407SOL     OW29661   3.451   0.202   8.868 -0.8586 -0.3101 -0.4344
 9407SOL    HW129662   3.521   0.164   8.815 -0.9656  0.7723 -1.4190
 9407SOL    HW229663   3.375   0.145   8.853 -0.9852  0.1666 -1.7725
 9408SOL     OW29664   7.524   5.779   6.164 -0.1479 -0.3201  0.1663
 9408SOL    HW129665   7.565   5.834   6.230 -0.0122  0.0716 -0.2401
 9408SOL    HW229666   7.569   5.801   6.083 -1.6308  0.6599 -0.4372
 9409SOL     OW29667   2.664   1.660  11.060  0.2000 -0.8166  0.0207
 9409SOL    HW129668   2.688   1.725  11.126 -0.7318 -0.7314  0.2942
 9409SOL    HW229669   2.727   1.588  11.073  2.3110  0.6689 -1.3745
 9410SOL     OW29670   3.626   1.513   7.352  0.1889 -0.5917 -0.2020
 9410SOL    HW129671   3.569   1.553   7.417  0.3688 -0.7498  0.0541
 9410SOL    HW229672   3.681   1.585   7.321  2.0353 -1.0386  1.8499
 9411SOL     OW29673   4.954   2.765   7.048  0.5549  0.5085  0.4642
 9411SOL    HW129674   4.887   2.756   6.980  2.1205  0.3679 -1.1409
 9411SOL    HW229675   4.990   2.853   7.034  0.5862  0.6574  1.4254
 9412SOL     OW29676   2.274   5.616   0.853  0.2313 -0.0886 -0.2818
 9412SOL    HW129677   2.336   5.546   0.834  0.5062  0.2776 -0.7758
 9412SOL    HW229678   2.319   5.696   0.825 -0.4598  0.1864 -0.6411
 9413SOL     OW29679   0.203   2.177   6.653 -0.3393 -0.0986 -0.4932
 9413SOL    HW129680   0.139   2.158   6.721 -1.6335  1.4883 -1.2027
 9413SOL    HW229681   0.222   2.270   6.661  2.1393 -0.5581 -0.1505
 9414SOL     OW29682   4.688   2.989   5.476  0.2353  0.3059 -0.0308
 9414SOL    HW129683   4.607   2.996   5.527 -0.1726  1.0764 -0.7522
 9414SOL    HW229684   4.692   3.071   5.427  1.5411  0.3284  0.1038
 9415SOL     OW29685   3.187   0.430   5.145  0.2931  0.4776  0.5133
 9415SOL    HW129686   3.091   0.437   5.144  0.2907  0.4772 -0.3952
 9415SOL    HW229687   3.208   0.405   5.234 -0.5652  0.3954  0.7056
 9416SOL     OW29688   4.039   0.291   6.299 -0.1647  0.1888 -0.1904
 9416SOL    HW129689   4.060   0.368   6.353  0.6621 -0.8745  1.0559
 9416SOL    HW229690   3.947   0.273   6.319 -0.5296  1.1704 -0.9172
 9417SOL     OW29691   7.050   6.906   1.233  0.5382 -0.5933  0.3399
 9417SOL    HW129692   7.117   6.914   1.300  0.4981  1.0737  0.2268
 9417SOL    HW229693   7.008   6.822   1.250  0.7831 -0.3777  2.1702
 9418SOL     OW29694   5.649   0.577   7.308  0.0265  0.5833 -0.2638
 9418SOL    HW129695   5.661   0.663   7.348  2.0128  0.4002 -0.3483
 9418SOL    HW229696   5.605   0.595   7.225 -2.5204  1.1420  1.1047
 9419SOL     OW29697   0.957   7.689   4.464 -0.0609 -0.3485 -0.1643
 9419SOL    HW129698   0.862   7.692   4.462 -0.0927 -1.0435 -1.8560
 9419SOL    HW229699   0.984   7.748   4.393  0.8639  1.2804  1.4546
 9420SOL     OW29700   2.155   3.211   8.814  0.4770 -0.2863 -0.1545
 9420SOL    HW129701   2.222   3.156   8.854  1.2327  1.2025  0.7335
 9420SOL    HW229702   2.140   3.281   8.879 -2.2045 -0.7574 -0.1670
 9421SOL     OW29703   2.410   7.412   8.654 -0.4702  0.1495  0.4806
 9421SOL    HW129704   2.344   7.366   8.706 -0.0533 -0.3490  0.5779
 9421SOL    HW229705   2.361   7.453   8.583 -1.0455  0.7919  1.2240
 9422SOL     OW29706   7.299   7.386   1.055  0.6952 -0.0757  0.1380
 9422SOL    HW129707   7.378   7.339   1.084  1.1387  0.1161 -0.7301
 9422SOL    HW229708   7.229   7.323   1.064  0.7682  0.0339  1.8252
 9423SOL     OW29709   0.672   5.627  11.537  0.1119  0.0635  0.0376
 9423SOL    HW129710   0.766   5.623  11.519  0.1416  1.2490 -0.1168
 9423SOL    HW229711   0.637   5.689  11.474 -0.7093 -0.0172  0.3914
 9424SOL     OW29712   3.419   1.212   5.787 -0.1187  0.0540  0.0674
 9424SOL    HW129713   3.475   1.219   5.865 -0.1326  0.2380  0.0605
 9424SOL    HW229714   3.330   1.211   5.821 -0.0964 -1.3921  0.1682
 9425SOL     OW29715   7.719   6.472   0.348  0.3421  0.5575 -0.4268
 9425SOL    HW129716   7.634   6.486   0.305 -0.7022  1.2678  1.7016
 9425SOL    HW229717   7.722   6.378   0.365  0.3691  0.4048 -1.2546
 9426SOL     OW29718   1.349   6.938   3.585  0.0810  0.1363 -0.2579
 9426SOL    HW129719   1.416   6.952   3.652 -0.2870 -0.1411  0.1815
 9426SOL    HW229720   1.366   7.005   3.519 -1.2554  2.3228  1.4610
 9427SOL     OW29721   1.364   6.976   1.050 -0.1902  0.0893  0.2943
 9427SOL    HW129722   1.414   6.950   1.128  0.2638  0.1299  0.0194
 9427SOL    HW229723   1.305   6.903   1.035  1.0015 -0.7773 -0.4052
 9428SOL     OW29724   3.525   2.922   9.492 -0.1950 -0.0559 -0.0126
 9428SOL    HW129725   3.592   2.989   9.480 -0.3492  0.5086  1.9881
 9428SOL    HW229726   3.557   2.869   9.565 -1.1854 -0.7510 -0.0701
 9429SOL     OW29727   6.510   1.263  10.566 -0.6825  0.1874  0.2120
 9429SOL    HW129728   6.530   1.354  10.547  0.0755 -0.3261 -1.6343
 9429SOL    HW229729   6.476   1.228  10.484 -2.5787 -0.7901  1.3428
 9430SOL     OW29730   3.144   0.923   2.043  0.0545 -0.3902  0.3563
 9430SOL    HW129731   3.061   0.887   2.011 -0.3811  0.2717  0.7238
 9430SOL    HW229732   3.200   0.847   2.055 -0.0220 -0.7402 -1.2369
 9431SOL     OW29733   2.987   0.499   6.907  0.1496  0.5552  0.3485
 9431SOL    HW129734   2.926   0.452   6.963  1.0941 -1.1592 -0.0109
 9431SOL    HW229735   2.941   0.509   6.824  0.4654 -1.1036 -0.0586
 9432SOL     OW29736   2.276   7.304   5.990 -0.1309  0.8305 -0.1653
 9432SOL    HW129737   2.309   7.295   5.901  0.8316  0.2238  0.2252
 9432SOL    HW229738   2.286   7.216   6.028 -0.1122  1.1793  0.6645
 9433SOL     OW29739   3.402   1.500   6.064 -0.3611 -0.4724  0.2559
 9433SOL    HW129740   3.440   1.427   6.111 -0.1286 -0.8241 -0.4584
 9433SOL    HW229741   3.435   1.578   6.109  1.9687 -0.7274 -0.8386
 9434SOL     OW29742   5.267   3.172  12.025 -0.3448 -0.6088  0.2565
 9434SOL    HW129743   5.248   3.140  12.113  0.7979 -0.5504  0.5322
 9434SOL    HW229744   5.336   3.114  11.993 -0.5413 -0.4375 -0.4866
 9435SOL     OW29745   4.658   0.600   2.721  0.2432 -0.0888 -0.2591
 9435SOL    HW129746   4.603   0.667   2.763  0.3127 -0.3348  0.2330
 9435SOL    HW229747   4.626   0.596   2.631 -0.1812  0.1649 -0.1240
 9436SOL     OW29748   7.263   1.846   0.813 -0.1314  0.0692  0.7907
 9436SOL    HW129749   7.178   1.886   0.828 -0.0671  0.8060 -0.6706
 9436SOL    HW229750   7.326   1.918   0.822  0.2145 -0.2034  0.5894
 9437SOL     OW29751   2.771   6.198   2.454 -0.4071  0.0228 -0.1350
 9437SOL    HW129752   2.850   6.201   2.508 -0.7142  0.4746  0.2995
 9437SOL    HW229753   2.755   6.290   2.431 -0.7269 -0.0833 -0.3329
 9438SOL     OW29754   3.484   5.265   8.998  0.1978 -0.5994  0.5486
 9438SOL    HW129755   3.433   5.184   8.990 -1.9122  0.3711  2.8046
 9438SOL    HW229756   3.457   5.302   9.082  2.0361  1.8373  0.1826
 9439SOL     OW29757   1.031   3.101   6.103 -0.2172  0.3401  0.4917
 9439SOL    HW129758   0.940   3.082   6.123 -0.9143 -0.1254 -2.6101
 9439SOL    HW229759   1.028   3.174   6.041  1.3793 -0.4507 -0.6016
 9440SOL     OW29760   2.464   5.196   4.487 -0.5736 -0.4439 -0.2487
 9440SOL    HW129761   2.522   5.190   4.563 -0.3480 -0.0606 -0.3896
 9440SOL    HW229762   2.517   5.164   4.414 -0.7963 -0.8291 -0.2441
 9441SOL     OW29763   1.987   0.771  11.307  0.4887  0.3013 -0.0405
 9441SOL    HW129764   1.908   0.727  11.275  1.5599 -0.0684 -2.3606
 9441SOL    HW229765   2.058   0.735  11.253  2.2850  0.5509  2.0270
 9442SOL     OW29766   4.324   7.206   9.399 -0.4486  0.0608 -0.4521
 9442SOL    HW129767   4.267   7.234   9.470 -0.5365  0.9706 -0.8752
 9442SOL    HW229768   4.380   7.281   9.381  1.5683 -1.1077  0.5879
 9443SOL     OW29769   4.298   3.452   4.160  0.0269 -0.7890  0.4821
 9443SOL    HW129770   4.307   3.359   4.142 -3.8536 -1.0511 -1.0562
 9443SOL    HW229771   4.388   3.484   4.171  1.8588 -3.7956 -3.5623
 9444SOL     OW29772   4.818   6.507   6.528 -0.6699  0.8637 -1.1644
 9444SOL    HW129773   4.846   6.584   6.577  2.3283 -0.7156 -0.1403
 9444SOL    HW229774   4.840   6.527   6.437  0.6868  0.9934 -0.8223
 9445SOL     OW29775   1.744   5.053   3.439 -0.1823  0.0635  0.0277
 9445SOL    HW129776   1.802   5.121   3.472 -0.0270  0.3229 -0.7582
 9445SOL    HW229777   1.655   5.085   3.458 -0.1641  1.1230 -1.4955
 9446SOL     OW29778   1.585   5.340   4.787 -0.1319 -0.1470 -0.8782
 9446SOL    HW129779   1.573   5.251   4.821 -1.2474  0.1840 -0.3730
 9446SOL    HW229780   1.618   5.390   4.861 -1.9946  0.4386 -0.3959
 9447SOL     OW29781   0.168   0.904   4.565 -0.0309  0.1246  0.3683
 9447SOL    HW129782   0.146   0.941   4.479  1.9614 -0.9009 -0.6379
 9447SOL    HW229783   0.128   0.817   4.565  1.7479 -0.7460 -0.4601
 9448SOL     OW29784   5.204   5.490   0.024  0.4557 -0.1724  0.0210
 9448SOL    HW129785   5.178   5.532  -0.058 -2.0164 -0.6156  0.5097
 9448SOL    HW229786   5.175   5.550   0.092 -2.3558 -2.1174  0.6963
 9449SOL     OW29787   6.230   0.173   7.685  0.0482 -0.1308  0.1748
 9449SOL    HW129788   6.169   0.199   7.754  0.5027  1.9407 -0.1533
 9449SOL    HW229789   6.212   0.080   7.672 -3.8991  0.5657 -0.7110
 9450SOL     OW29790   4.234   7.600  12.101  0.5061  0.0115  0.3099
 9450SOL    HW129791   4.180   7.578  12.026 -1.9214 -0.2239  2.0010
 9450SOL    HW229792   4.254   7.693  12.090 -2.6427  0.8915  0.8965
 9451SOL     OW29793   3.804   5.122   0.302  0.1028 -0.6410  0.3037
 9451SOL    HW129794   3.876   5.158   0.353  0.9722 -1.1633 -0.5420
 9451SOL    HW229795   3.728   5.130   0.360  0.4083  1.7286  0.5022
 9452SOL     OW29796   4.269   3.112   6.420 -0.4262 -0.4205  0.2766
 9452SOL    HW129797   4.255   3.025   6.459  1.8943 -0.6614  0.7177
 9452SOL    HW229798   4.335   3.097   6.352 -0.4782  0.8888 -0.0801
 9453SOL     OW29799   4.792   1.969   9.152 -0.0254 -0.1184 -0.2024
 9453SOL    HW129800   4.824   2.053   9.119  3.1343  0.3275  3.3598
 9453SOL    HW229801   4.870   1.914   9.158 -1.1336 -1.5773  2.2495
 9454SOL     OW29802   2.233   7.318  12.217  1.3181 -0.3917 -0.0690
 9454SOL    HW129803   2.296   7.307  12.289 -0.6377  2.6554  2.3826
 9454SOL    HW229804   2.256   7.401  12.176 -0.3637  0.2647  0.2032
 9455SOL     OW29805   1.980   2.639  11.657 -0.6398 -0.2975 -0.1955
 9455SOL    HW129806   1.939   2.661  11.574 -2.0273 -1.4611  0.1373
 9455SOL    HW229807   1.981   2.722  11.705  0.5660  0.4786 -1.4983
 9456SOL     OW29808   7.398   3.009   3.579 -0.4535  0.3296  0.2207
 9456SOL    HW129809   7.459   3.051   3.519 -2.4460  1.0072 -1.4347
 9456SOL    HW229810   7.422   3.043   3.665  2.2016 -0.3384 -0.1711
 9457SOL     OW29811   2.670   1.489   7.786  0.3421 -0.9972  0.2202
 9457SOL    HW129812   2.725   1.553   7.831  0.7154 -0.0891 -1.4045
 9457SOL    HW229813   2.724   1.459   7.712 -0.2286 -2.4124  0.3532
 9458SOL     OW29814   5.273   0.922   4.681 -0.5277  0.0769  0.3472
 9458SOL    HW129815   5.189   0.947   4.644 -0.1987 -1.5421 -1.6785
 9458SOL    HW229816   5.317   1.005   4.699 -2.7405  0.9760  2.0871
 9459SOL     OW29817   3.543   5.919   3.545  0.3987  0.6008  0.2294
 9459SOL    HW129818   3.466   5.963   3.580 -1.0217 -0.8163 -0.9485
 9459SOL    HW229819   3.547   5.946   3.453 -1.1034 -2.2600 -0.8206
 9460SOL     OW29820   1.828   3.336   9.421  0.3520  0.4194  0.3530
 9460SOL    HW129821   1.795   3.303   9.505 -0.4129 -1.8462 -0.7418
 9460SOL    HW229822   1.920   3.308   9.419  0.1387 -0.2930  0.1056
 9461SOL     OW29823   3.332   1.746  10.048 -0.1196  0.0449 -0.2410
 9461SOL    HW129824   3.314   1.696   9.968  1.3707 -1.1395  0.1156
 9461SOL    HW229825   3.343   1.679  10.116  0.7074  0.9262  0.5193
 9462SOL     OW29826   4.349   3.631   2.602 -0.4456  0.1226  0.4323
 9462SOL    HW129827   4.268   3.654   2.647 -0.4600 -1.2583  1.1910
 9462SOL    HW229828   4.402   3.588   2.670 -0.8437 -2.8853 -0.9991
 9463SOL     OW29829   7.737   1.899   0.943 -0.5022  0.0611 -0.5900
 9463SOL    HW129830   7.686   1.937   1.015 -2.2238  0.3525 -1.9129
 9463SOL    HW229831   7.699   1.813   0.930  1.7980 -1.2734  0.7799
 9464SOL     OW29832   3.421   5.709  10.999 -0.3552 -0.2227 -0.0474
 9464SOL    HW129833   3.393   5.730  10.910  1.5538 -0.7965 -0.8456
 9464SOL    HW229834   3.425   5.613  11.001 -0.2703 -0.2122  0.6202
 9465SOL     OW29835   2.131   3.572  11.332  0.2318 -0.0053 -0.2895
 9465SOL    HW129836   2.094   3.625  11.402 -0.1452  1.1297 -1.3141
 9465SOL    HW229837   2.110   3.620  11.252  0.9947 -1.0657 -1.1554
 9466SOL     OW29838   7.584   7.760  10.123 -1.2172  0.4811  0.0344
 9466SOL    HW129839   7.517   7.827  10.131 -0.1001  1.8458 -1.2492
 9466SOL    HW229840   7.665   7.809  10.106 -0.5482 -1.1885 -2.1132
 9467SOL     OW29841   5.858   5.333   6.193  0.3323  0.2026  0.0642
 9467SOL    HW129842   5.831   5.418   6.157  0.0655 -0.1193 -0.5070
 9467SOL    HW229843   5.783   5.305   6.246  0.4484  0.3514  0.3106
 9468SOL     OW29844   3.772   3.804   4.496  0.0190  0.0304  0.4233
 9468SOL    HW129845   3.754   3.734   4.560  0.5004 -1.3370 -0.8664
 9468SOL    HW229846   3.687   3.824   4.459 -0.1522  0.2723  0.9383
 9469SOL     OW29847   0.128   1.816  11.691  0.0928 -0.0166 -0.0438
 9469SOL    HW129848   0.178   1.772  11.759 -1.9086 -0.9837  0.8791
 9469SOL    HW229849   0.185   1.887  11.661  1.5344 -0.3642  1.7171
 9470SOL     OW29850   0.780   7.904   1.998  0.1703  0.1093 -0.1224
 9470SOL    HW129851   0.868   7.906   2.036  0.2018  0.3013 -0.2047
 9470SOL    HW229852   0.725   7.949   2.063  0.0654 -0.3212  0.0949
 9471SOL     OW29853   1.764   1.373   2.516  0.5710  0.1134 -0.6193
 9471SOL    HW129854   1.724   1.300   2.564 -1.3370  2.2647  1.3199
 9471SOL    HW229855   1.855   1.372   2.544 -0.1189  0.2986  1.9136
 9472SOL     OW29856   7.462   5.701   2.420 -0.0124 -0.0250 -0.0635
 9472SOL    HW129857   7.376   5.705   2.379 -1.4364 -1.3652  2.5102
 9472SOL    HW229858   7.480   5.791   2.446 -0.7895  0.2331 -0.3891
 9473SOL     OW29859   0.506   5.570   0.731  0.3142  0.1842 -0.6375
 9473SOL    HW129860   0.594   5.536   0.750  0.1872 -1.5292 -2.7922
 9473SOL    HW229861   0.521   5.653   0.687  0.8313  0.2272 -0.3860
 9474SOL     OW29862   1.208   1.295   7.936 -0.6016 -0.2198  0.0372
 9474SOL    HW129863   1.243   1.354   7.869 -0.6680 -1.6518 -1.3227
 9474SOL    HW229864   1.216   1.344   8.017  0.0546  1.3547 -0.9221
 9475SOL     OW29865   3.107   3.043   2.378  0.6879 -0.5198  0.0828
 9475SOL    HW129866   3.097   3.041   2.282  3.1400  0.1295 -0.2390
 9475SOL    HW229867   3.017   3.049   2.410 -0.1577  0.9548 -2.2440
 9476SOL     OW29868   5.441   4.019   5.576  0.2386 -0.2728 -0.2252
 9476SOL    HW129869   5.515   4.012   5.515 -0.4101  0.3995 -1.1178
 9476SOL    HW229870   5.389   4.092   5.542 -0.9254 -0.8434  0.2819
 9477SOL     OW29871   3.433   0.985   0.137  0.0530  0.0579 -0.0074
 9477SOL    HW129872   3.461   1.071   0.107  1.7438 -0.0527  1.0953
 9477SOL    HW229873   3.459   0.925   0.067  1.4741  0.1260  0.4317
 9478SOL     OW29874   5.973   7.127   5.811  0.1773 -0.3137 -0.1353
 9478SOL    HW129875   6.029   7.122   5.889  0.2448  1.4833 -0.0146
 9478SOL    HW229876   5.978   7.219   5.785 -1.1630 -0.5455 -1.2991
 9479SOL     OW29877   3.667   1.014   7.174 -0.2292 -0.9081  0.1046
 9479SOL    HW129878   3.752   1.057   7.182  0.5453 -2.3465 -0.0949
 9479SOL    HW229879   3.631   1.013   7.263 -0.2780  0.1401  0.1072
 9480SOL     OW29880   1.986   7.776   2.755 -0.0289  0.4381 -0.3501
 9480SOL    HW129881   1.961   7.690   2.789  0.2253 -0.6288 -2.7070
 9480SOL    HW229882   2.080   7.781   2.771  0.1046 -0.0882 -0.9450
 9481SOL     OW29883   7.686   1.042  10.417  0.0423 -0.6404 -0.3766
 9481SOL    HW129884   7.762   0.986  10.401  0.6093  0.2800 -0.9804
 9481SOL    HW229885   7.635   1.036  10.336 -1.3273 -2.4069  0.5383
 9482SOL     OW29886   1.001   6.573   3.064 -0.2903  0.5131  0.1608
 9482SOL    HW129887   1.017   6.652   3.013 -0.4268  0.4736  0.0528
 9482SOL    HW229888   0.984   6.603   3.153  2.0293  0.4495  0.6719
 9483SOL     OW29889   3.102   2.700   5.719 -0.1857  0.7664 -0.2752
 9483SOL    HW129890   3.181   2.649   5.701 -0.7863 -0.4105  0.2347
 9483SOL    HW229891   3.065   2.659   5.797 -1.0484  1.5883 -0.2353
 9484SOL     OW29892   1.350   1.231   2.647 -0.3908 -0.1613  0.1273
 9484SOL    HW129893   1.322   1.141   2.634 -0.2227 -0.2127  0.1200
 9484SOL    HW229894   1.354   1.268   2.558  0.0112 -0.2883  0.0924
 9485SOL     OW29895   0.976   4.405   3.664 -0.1378  0.1604 -0.4890
 9485SOL    HW129896   0.892   4.371   3.634  0.0955 -1.6920  0.7369
 9485SOL    HW229897   0.986   4.369   3.752  1.5182  1.1036 -0.2450
 9486SOL     OW29898   5.082   5.220   6.868  0.1861  0.2305  0.0635
 9486SOL    HW129899   5.013   5.242   6.931 -0.4571 -1.5344  0.0293
 9486SOL    HW229900   5.112   5.133   6.895  1.2894  0.3009 -0.8882
 9487SOL     OW29901   3.874   3.127   7.737  0.2444  0.0623 -0.0152
 9487SOL    HW129902   3.942   3.186   7.704 -1.3754  2.6435  1.0217
 9487SOL    HW229903   3.851   3.073   7.661  1.6866  0.8411 -1.0631
 9488SOL     OW29904   0.369   6.734  10.860  0.0440  0.1244  0.2911
 9488SOL    HW129905   0.286   6.692  10.883 -0.1380 -0.1990 -0.9183
 9488SOL    HW229906   0.381   6.801  10.928 -1.0769  0.0113  0.6212
 9489SOL     OW29907   5.697   2.768   6.005  0.3662 -0.2210  0.1812
 9489SOL    HW129908   5.791   2.781   5.992  0.4238  0.1101  0.8785
 9489SOL    HW229909   5.683   2.675   5.987  0.6343 -0.0516 -0.9719
 9490SOL     OW29910   5.549   6.887   3.622 -0.1556 -0.6410 -0.4991
 9490SOL    HW129911   5.574   6.798   3.647  1.0084  0.3892  2.4425
 9490SOL    HW229912   5.468   6.877   3.571 -2.1587 -3.1830  2.8362
 9491SOL     OW29913   1.676   6.671   6.962 -0.0494 -0.0779  0.2707
 9491SOL    HW129914   1.658   6.593   7.015 -0.0525  0.0204  0.4142
 9491SOL    HW229915   1.753   6.710   7.002  0.4576 -0.4686 -0.3121
 9492SOL     OW29916   6.495   7.197   3.056  0.6476  0.0231 -0.4704
 9492SOL    HW129917   6.450   7.131   3.003  0.3373  0.3280 -0.5879
 9492SOL    HW229918   6.497   7.275   3.000  1.5275 -0.0470 -0.5620
 9493SOL     OW29919   0.799   0.097   9.033  0.2782 -0.0209 -0.3370
 9493SOL    HW129920   0.867   0.130   9.092  0.9845  0.8060 -1.5701
 9493SOL    HW229921   0.847   0.052   8.964 -0.4798 -0.1980 -0.7582
 9494SOL     OW29922   0.629   5.441   9.096 -0.5261 -0.1893 -0.3233
 9494SOL    HW129923   0.646   5.522   9.144 -1.3296  0.4845 -1.1387
 9494SOL    HW229924   0.533   5.433   9.096 -0.5045 -3.2685  3.2017
 9495SOL     OW29925   2.356   0.455   3.948  0.2455  0.4861  0.2536
 9495SOL    HW129926   2.354   0.362   3.972  1.4087  0.4134  0.1551
 9495SOL    HW229927   2.332   0.502   4.028  2.5939  0.1914  1.2340
 9496SOL     OW29928   2.929   2.768   3.800  0.3719  0.4502  0.1198
 9496SOL    HW129929   3.017   2.768   3.762  0.4121 -1.8641  0.0820
 9496SOL    HW229930   2.872   2.748   3.726 -0.3151  2.5410  0.0189
 9497SOL     OW29931   0.439   4.951   8.475 -0.8917 -0.3496  0.5649
 9497SOL    HW129932   0.451   4.876   8.533 -0.6154 -0.7880 -0.0426
 9497SOL    HW229933   0.475   4.922   8.391  1.8871  1.4157  1.0044
 9498SOL     OW29934   2.179   6.131   4.930 -0.3946  0.3459 -0.1056
 9498SOL    HW129935   2.267   6.129   4.893 -0.5013 -0.2596 -0.3346
 9498SOL    HW229936   2.167   6.222   4.957 -0.0784  0.6570 -0.9736
 9499SOL     OW29937   7.697   5.147   7.812  0.1091 -0.7621 -0.0476
 9499SOL    HW129938   7.667   5.069   7.859 -0.7000 -0.1222  0.5178
 9499SOL    HW229939   7.773   5.177   7.860 -0.4547 -0.3655  0.6205
 9500SOL     OW29940   1.708   7.874   4.573  0.1236 -0.6062  0.3934
 9500SOL    HW129941   1.787   7.925   4.556 -0.9061  1.1006  0.4580
 9500SOL    HW229942   1.740   7.790   4.606  1.9186 -0.5326 -1.0422
 9501SOL     OW29943   7.061   5.188   8.470 -0.0660  0.1858 -0.2881
 9501SOL    HW129944   7.100   5.269   8.503  0.2988  0.1738 -0.6795
 9501SOL    HW229945   7.000   5.161   8.539 -0.0330  0.6774 -0.0602
 9502SOL     OW29946   4.086   5.280   1.193 -0.1602 -0.0634  0.0734
 9502SOL    HW129947   4.150   5.241   1.133  0.1786 -0.1206  0.4690
 9502SOL    HW229948   4.047   5.205   1.238 -0.7563 -0.0523 -0.4119
 9503SOL     OW29949   4.424   7.643   6.808 -0.4313  1.3900  0.0144
 9503SOL    HW129950   4.419   7.724   6.757 -0.3499  0.4308 -1.5868
 9503SOL    HW229951   4.408   7.574   6.744 -0.1739  0.1151  1.2879
 9504SOL     OW29952   5.013   3.277   0.290  0.7216 -0.1060  0.2037
 9504SOL    HW129953   4.918   3.267   0.292  0.5408  1.2851 -0.0432
 9504SOL    HW229954   5.042   3.218   0.220 -0.1240  0.4386 -0.6392
 9505SOL     OW29955   0.046   5.808   8.084  0.2298  0.2803  0.2076
 9505SOL    HW129956  -0.016   5.879   8.100  0.4054  0.9298 -1.8076
 9505SOL    HW229957   0.059   5.807   7.989  2.9004 -0.1765  0.4943
 9506SOL     OW29958   3.320   6.858   6.966 -0.2228  0.4069 -0.5157
 9506SOL    HW129959   3.320   6.800   7.041 -0.4840 -0.2115 -0.9865
 9506SOL    HW229960   3.228   6.863   6.939  0.1199 -1.3419 -2.2689
 9507SOL     OW29961   4.495   1.842   6.458 -0.6055 -0.1008  0.6055
 9507SOL    HW129962   4.508   1.931   6.491 -1.1653 -0.8267  2.9594
 9507SOL    HW229963   4.405   1.842   6.425 -0.3665  0.3711 -0.0722
 9508SOL     OW29964   4.084   2.490   8.605 -0.3975  0.1316  0.2758
 9508SOL    HW129965   4.153   2.437   8.566 -0.1792  0.7984 -0.2631
 9508SOL    HW229966   4.008   2.431   8.609 -0.1292 -0.2595 -0.1987
 9509SOL     OW29967   3.608   2.549   9.646 -0.1951  0.7431  0.3309
 9509SOL    HW129968   3.563   2.629   9.673  1.1941  1.3634  0.9394
 9509SOL    HW229969   3.700   2.576   9.636  0.1350 -0.5646 -0.4166
 9510SOL     OW29970   4.001   0.360   3.724  0.0143  0.9707 -0.3720
 9510SOL    HW129971   3.989   0.367   3.629 -0.8913 -0.1409 -0.3581
 9510SOL    HW229972   4.079   0.413   3.742 -0.4708  2.1536 -1.5677
 9511SOL     OW29973   2.055   5.145   8.246 -0.1690 -0.4900  0.5928
 9511SOL    HW129974   2.035   5.163   8.154  1.1025 -0.8041  0.2313
 9511SOL    HW229975   1.980   5.096   8.278 -1.5535  1.3397  0.2907
 9512SOL     OW29976   6.062   2.193   3.828 -0.4014  0.0980 -0.2419
 9512SOL    HW129977   6.143   2.144   3.843 -0.0221  0.5727 -0.6852
 9512SOL    HW229978   6.076   2.275   3.876 -0.3587  0.4387 -0.8310
 9513SOL     OW29979   1.744   4.091   5.901  0.3799  0.7402  0.0010
 9513SOL    HW129980   1.813   4.071   5.838  0.4468  1.9008 -0.3268
 9513SOL    HW229981   1.663   4.092   5.849  0.4555  1.8621 -0.1272
 9514SOL     OW29982   6.228   1.984   5.445 -0.4460 -0.2694 -0.1558
 9514SOL    HW129983   6.172   2.013   5.516  0.3517  1.3058 -0.1280
 9514SOL    HW229984   6.273   1.907   5.480  0.2137  0.6947  1.2220
 9515SOL     OW29985   4.128   5.259  11.794  0.0153  0.7623 -0.1038
 9515SOL    HW129986   4.074   5.338  11.785  0.9532  1.3571 -0.5967
 9515SOL    HW229987   4.099   5.202  11.723  0.6802  1.4690 -0.9513
 9516SOL     OW29988   5.232   3.404   6.956 -0.5225  0.0951  0.0813
 9516SOL    HW129989   5.282   3.485   6.961  0.6825 -0.5159 -1.3345
 9516SOL    HW229990   5.290   3.337   6.993  0.1187 -0.7669 -2.3162
 9517SOL     OW29991   7.157   3.803   6.022  0.2194  0.1010  0.0928
 9517SOL    HW129992   7.193   3.821   6.109 -3.3601  0.7121  1.6432
 9517SOL    HW229993   7.124   3.888   5.992 -0.9281 -0.5843 -0.6416
 9518SOL     OW29994   7.382   0.188   8.395  0.0309  0.0527  0.2193
 9518SOL    HW129995   7.466   0.186   8.349 -0.4238  0.3777 -0.6419
 9518SOL    HW229996   7.320   0.218   8.329 -0.3783  2.0540  1.4515
 9519SOL     OW29997   7.189   2.138   0.716  0.3697  0.1328  0.5826
 9519SOL    HW129998   7.100   2.123   0.686 -0.3082 -0.2871  2.6639
 9519SOL    HW229999   7.201   2.233   0.710 -0.3500  0.2275  0.6299
 9520SOL     OW30000   7.137   1.914   8.421 -0.1640 -0.1321 -0.1332
 9520SOL    HW130001   7.099   1.929   8.508  1.0155 -1.4388  0.6481
 9520SOL    HW230002   7.198   1.986   8.408 -0.3197  0.0517  0.1497
 9521SOL     OW30003   2.927   0.241   6.128  0.3126  0.1179  0.6192
 9521SOL    HW130004   2.868   0.301   6.172  1.4041  0.3133  1.8915
 9521SOL    HW230005   2.961   0.290   6.053 -1.8444 -0.3424 -0.7620
 9522SOL     OW30006   2.219   7.266   8.756  0.7084 -0.0889  0.4289
 9522SOL    HW130007   2.151   7.287   8.821  1.2092  0.3917  0.8022
 9522SOL    HW230008   2.183   7.190   8.709 -0.3896  0.5710  0.1629
 9523SOL     OW30009   3.048   3.150   2.763 -0.2041 -0.3385  0.2092
 9523SOL    HW130010   3.057   3.062   2.799  2.3668  0.5455  2.0628
 9523SOL    HW230011   2.979   3.190   2.815  0.6487 -0.3979  1.4494
 9524SOL     OW30012   5.839   4.310   1.810 -0.0886  0.3456  0.0669
 9524SOL    HW130013   5.801   4.364   1.740  0.6625 -0.3853 -0.9284
 9524SOL    HW230014   5.931   4.334   1.811 -0.0624  0.2339  0.7105
 9525SOL     OW30015   3.870   3.880   6.391  0.2280  0.4280  0.5690
 9525SOL    HW130016   3.829   3.843   6.470 -1.0407 -1.2327 -0.7726
 9525SOL    HW230017   3.802   3.934   6.352  0.9518  1.4847  0.7346
 9526SOL     OW30018   7.187   0.015   2.248  0.2201  0.0759 -0.2686
 9526SOL    HW130019   7.179   0.104   2.215  1.4818  0.1009 -0.5831
 9526SOL    HW230020   7.169  -0.041   2.172  0.3774  0.0817 -0.3103
 9527SOL     OW30021   0.810   6.094   8.163  0.4149  0.3137 -0.1178
 9527SOL    HW130022   0.774   6.080   8.251 -0.3924  0.8966 -0.3397
 9527SOL    HW230023   0.876   6.025   8.153 -0.1650 -0.3675  0.5763
 9528SOL     OW30024   5.748   1.459  10.682  0.2432 -0.1591 -0.4700
 9528SOL    HW130025   5.776   1.389  10.742 -1.1916  0.0428  0.4790
 9528SOL    HW230026   5.656   1.439  10.663  0.1520  0.8262 -1.1238
 9529SOL     OW30027   0.265   3.972   0.411  0.1708  0.1219 -0.4440
 9529SOL    HW130028   0.187   4.015   0.376  0.7444  0.4998 -1.2932
 9529SOL    HW230029   0.246   3.879   0.404 -0.2311  0.2106 -0.5752
 9530SOL     OW30030   0.749   3.657  11.323 -0.4575 -0.1872  0.0952
 9530SOL    HW130031   0.654   3.657  11.322 -0.4737 -1.3572 -1.2765
 9530SOL    HW230032   0.774   3.571  11.288  1.1049 -0.0967  0.8824
 9531SOL     OW30033   6.983   7.294  11.527  0.6571 -0.4547 -0.4367
 9531SOL    HW130034   6.908   7.236  11.541  1.0877 -0.8961  0.1077
 9531SOL    HW230035   7.011   7.275  11.437  0.5204 -0.7678 -0.4159
 9532SOL     OW30036   3.871   1.093   3.985  0.3879  0.3899 -0.0434
 9532SOL    HW130037   3.952   1.043   3.974 -0.0687 -0.6311  1.0618
 9532SOL    HW230038   3.809   1.053   3.924  0.2590  0.1186  0.2609
 9533SOL     OW30039   7.811   0.066   5.885 -0.0590 -0.2279  0.2140
 9533SOL    HW130040   7.810  -0.004   5.950 -1.1523 -0.2211  0.2167
 9533SOL    HW230041   7.773   0.141   5.931  0.2613  0.1170 -0.0735
 9534SOL     OW30042   2.841   0.298   7.589 -0.5170  0.0806 -0.2761
 9534SOL    HW130043   2.752   0.333   7.579 -0.6517 -0.5180 -1.3005
 9534SOL    HW230044   2.872   0.335   7.672 -1.3840  1.0223 -0.3505
 9535SOL     OW30045   3.890   7.576   7.442 -0.0699 -0.2112  0.5969
 9535SOL    HW130046   3.963   7.562   7.503  0.5389  1.1397  0.2135
 9535SOL    HW230047   3.922   7.541   7.359  0.7538  1.6603  0.0740
 9536SOL     OW30048   6.136   0.672   7.864 -0.3579  0.7739  0.2611
 9536SOL    HW130049   6.150   0.698   7.955  0.4320  0.9111  0.1136
 9536SOL    HW230050   6.218   0.628   7.839 -1.1397 -0.6231  0.0776
 9537SOL     OW30051   1.432   1.621   7.061 -0.0166  0.6766 -0.2358
 9537SOL    HW130052   1.487   1.575   7.125 -0.1732 -0.4580 -0.8788
 9537SOL    HW230053   1.374   1.675   7.115 -1.4268 -1.6740  0.7615
 9538SOL     OW30054   6.681   2.089   9.238  0.1397  0.1669 -0.4038
 9538SOL    HW130055   6.651   2.180   9.243  0.3756  0.2113  0.3414
 9538SOL    HW230056   6.683   2.060   9.329 -1.6811 -1.1679 -0.7281
 9539SOL     OW30057   2.166   2.357   2.892  0.4396  0.7931  0.3981
 9539SOL    HW130058   2.194   2.436   2.846  0.9497  0.3886 -0.0020
 9539SOL    HW230059   2.192   2.372   2.983  0.4021  1.1462  0.3517
 9540SOL     OW30060   1.348   3.770   8.283  0.0822 -0.1115 -0.2587
 9540SOL    HW130061   1.397   3.762   8.365  0.5168  1.2986 -0.3561
 9540SOL    HW230062   1.404   3.729   8.217 -0.3519 -1.4223  0.1435
 9541SOL     OW30063   2.770   1.339   2.544  0.2038 -0.0841  0.4057
 9541SOL    HW130064   2.858   1.373   2.560  0.6521 -1.0440  0.0881
 9541SOL    HW230065   2.715   1.417   2.537  1.3053  0.6193 -0.9975
 9542SOL     OW30066   5.562   7.888   0.386  0.0730  0.2405 -0.3101
 9542SOL    HW130067   5.489   7.928   0.434 -0.6089 -1.6279  0.3105
 9542SOL    HW230068   5.635   7.890   0.448 -0.0133  0.3307 -0.2113
 9543SOL     OW30069   3.288   7.232  11.278 -0.0450 -0.1120 -0.2158
 9543SOL    HW130070   3.316   7.304  11.334 -2.9001  0.8699  0.1469
 9543SOL    HW230071   3.244   7.274  11.205 -0.5942 -1.4641 -0.7035
 9544SOL     OW30072   7.447   0.330   2.694  0.7171  0.2094  0.6100
 9544SOL    HW130073   7.473   0.392   2.761 -1.8918  1.1040  0.9354
 9544SOL    HW230074   7.372   0.283   2.733  2.1233 -2.7047  0.1114
 9545SOL     OW30075   5.805   4.887   8.528  0.7073  0.4119 -0.2433
 9545SOL    HW130076   5.864   4.812   8.536  1.3245  0.7596 -1.3747
 9545SOL    HW230077   5.863   4.963   8.524  0.1230  0.8782 -0.1027
 9546SOL     OW30078   4.998   1.285   7.343 -0.0893  0.7579 -0.3510
 9546SOL    HW130079   5.007   1.370   7.300 -0.0502  0.7568 -0.3444
 9546SOL    HW230080   4.928   1.299   7.406 -0.0821  0.7861 -0.3488
 9547SOL     OW30081   6.194   0.301   0.806 -0.5722  0.4882  0.3245
 9547SOL    HW130082   6.236   0.331   0.887 -0.2850 -0.5124  0.5585
 9547SOL    HW230083   6.105   0.280   0.832 -0.5050  0.2486  0.3574
 9548SOL     OW30084   5.291   6.629   8.495 -0.0738 -0.3058 -0.2426
 9548SOL    HW130085   5.302   6.720   8.523  0.4040 -0.3184 -0.3866
 9548SOL    HW230086   5.274   6.581   8.576 -0.7981 -0.0230 -0.2147
 9549SOL     OW30087   6.096   4.193   4.082  0.2064 -0.4867 -0.3507
 9549SOL    HW130088   6.007   4.215   4.054  0.3636  2.6743  1.1820
 9549SOL    HW230089   6.088   4.172   4.175  0.9676 -0.9530 -0.3834
 9550SOL     OW30090   2.130   5.602   9.010  0.3412  0.1197  0.3531
 9550SOL    HW130091   2.111   5.689   9.045 -1.0750 -0.5873  1.4382
 9550SOL    HW230092   2.193   5.564   9.071 -0.7576 -0.4298  1.1911
 9551SOL     OW30093   5.368   7.921   5.154  0.1082  0.1711 -0.1533
 9551SOL    HW130094   5.345   7.840   5.198 -1.9820  0.9286  0.2596
 9551SOL    HW230095   5.426   7.967   5.215 -0.5665  0.0036  0.6146
 9552SOL     OW30096   2.154   6.394  12.179  0.0458 -0.3582  0.0607
 9552SOL    HW130097   2.210   6.320  12.154  0.3441  0.2770 -1.2591
 9552SOL    HW230098   2.186   6.420  12.265  0.4607 -1.2522  0.1915
 9553SOL     OW30099   3.407   6.111   0.924 -0.4285 -0.1060  0.3854
 9553SOL    HW130100   3.428   6.019   0.939  0.8070 -0.1279 -1.1923
 9553SOL    HW230101   3.480   6.144   0.871 -0.5501  1.9397  1.4037
 9554SOL     OW30102   1.012   7.346  10.887  0.6840 -0.2704 -0.2759
 9554SOL    HW130103   1.093   7.303  10.859  0.4693 -0.8520 -0.0043
 9554SOL    HW230104   1.010   7.334  10.982  0.1489 -0.4773 -0.3127
 9555SOL     OW30105   6.278   0.074   0.397 -0.3031 -0.0044 -0.0705
 9555SOL    HW130106   6.234   0.144   0.350  1.8468  1.9996  0.7337
 9555SOL    HW230107   6.293   0.006   0.331 -1.2994  0.8146 -1.1823
 9556SOL     OW30108   3.883   4.483   2.940 -0.1389 -0.1026 -0.2463
 9556SOL    HW130109   3.923   4.398   2.958  0.3773  0.4272  1.2398
 9556SOL    HW230110   3.789   4.467   2.944 -0.0438 -0.6349 -0.0718
 9557SOL     OW30111   0.606   3.624  10.601 -0.0669 -0.3431 -0.5840
 9557SOL    HW130112   0.604   3.531  10.619  0.5848 -0.4419 -0.9780
 9557SOL    HW230113   0.692   3.653  10.634 -0.5566  0.2604  0.2005
 9558SOL     OW30114   7.076   3.013   7.330 -0.1309 -0.7627  0.4770
 9558SOL    HW130115   7.004   3.059   7.373 -0.1736  0.7918 -1.1134
 9558SOL    HW230116   7.090   2.935   7.383 -1.7471 -0.1690  1.8786
 9559SOL     OW30117   7.108   1.946   2.153 -0.2691 -0.0047  0.2110
 9559SOL    HW130118   7.156   1.933   2.071 -1.8729 -0.5047 -0.6903
 9559SOL    HW230119   7.022   1.978   2.126 -0.3253  1.2946  1.8046
 9560SOL     OW30120   3.779   6.224   8.628  0.1952  0.2347 -1.0623
 9560SOL    HW130121   3.716   6.295   8.639  1.8555  1.5287  0.9803
 9560SOL    HW230122   3.864   6.264   8.644  1.3214 -1.9857 -0.9915
 9561SOL     OW30123   0.753   0.205  10.351 -0.1015  0.5169  0.1236
 9561SOL    HW130124   0.831   0.153  10.370 -0.9580 -1.4493 -1.3767
 9561SOL    HW230125   0.760   0.225  10.258 -1.7849 -0.4492 -0.2356
 9562SOL     OW30126   4.194   5.235  10.911 -0.1221  0.3935 -0.3574
 9562SOL    HW130127   4.125   5.242  10.845  0.6093  1.0305 -1.0789
 9562SOL    HW230128   4.190   5.318  10.959  0.7909  0.8665 -1.0719
 9563SOL     OW30129   3.574   3.951   5.420 -0.2750 -0.5464 -0.1893
 9563SOL    HW130130   3.658   3.905   5.428  0.5004  0.7183 -0.6833
 9563SOL    HW230131   3.509   3.882   5.413  0.6953 -1.5617  0.5326
 9564SOL     OW30132   6.423   3.587   1.436  0.0412 -0.0774 -0.0905
 9564SOL    HW130133   6.335   3.615   1.462  0.1675  0.3713 -0.1444
 9564SOL    HW230134   6.471   3.668   1.422  0.8075 -0.3126  1.0682
 9565SOL     OW30135   4.181   5.648   8.330  0.0060 -0.1857  0.2936
 9565SOL    HW130136   4.204   5.564   8.369 -1.0325  0.1106  1.6092
 9565SOL    HW230137   4.093   5.668   8.364 -0.4310  0.6851 -1.2423
 9566SOL     OW30138   2.973   3.347   9.921 -0.3552  0.1748 -0.4944
 9566SOL    HW130139   2.888   3.305   9.907 -0.1350  0.0647 -1.5411
 9566SOL    HW230140   2.973   3.371  10.014 -0.8093 -1.4278 -0.0486
 9567SOL     OW30141   1.478   0.403   8.506  0.0517  0.1536 -0.3668
 9567SOL    HW130142   1.486   0.320   8.460 -0.4081  1.1626 -2.3809
 9567SOL    HW230143   1.410   0.451   8.459  0.2004  1.6219  0.8232
 9568SOL     OW30144   5.539   5.335   7.692 -0.1833 -0.4721  0.0888
 9568SOL    HW130145   5.630   5.351   7.718  0.3979 -1.9204 -0.8584
 9568SOL    HW230146   5.491   5.328   7.774  0.4958  0.6603  0.5953
 9569SOL     OW30147   6.014   0.310   8.320 -0.7485 -0.0384  0.5529
 9569SOL    HW130148   5.970   0.317   8.404  0.0441  3.0436  0.8394
 9569SOL    HW230149   6.101   0.347   8.335 -0.4790  0.3132 -1.5145
 9570SOL     OW30150   3.763   7.789   9.833 -0.4529 -0.4457  0.0754
 9570SOL    HW130151   3.807   7.871   9.857 -0.8657 -0.1501 -0.1743
 9570SOL    HW230152   3.678   7.816   9.800 -0.7970 -1.0083  0.4736
 9571SOL     OW30153   2.939   3.064  11.180  0.2414 -0.3803 -0.4892
 9571SOL    HW130154   2.861   3.032  11.135  0.1565  0.1689 -0.7415
 9571SOL    HW230155   2.934   3.025  11.267  0.1257 -1.0200 -0.7744
 9572SOL     OW30156   4.016   2.185   5.976 -0.5483 -0.3788  0.1997
 9572SOL    HW130157   3.999   2.248   6.045 -1.0733  1.1014 -1.2143
 9572SOL    HW230158   4.087   2.223   5.924 -1.8766 -0.1238 -1.5605
 9573SOL     OW30159   3.438   4.460   7.408  0.1798 -0.2390 -0.4440
 9573SOL    HW130160   3.454   4.545   7.450 -0.3988  0.1637 -1.0138
 9573SOL    HW230161   3.524   4.433   7.376  0.4625 -0.1218  0.1878
 9574SOL     OW30162   1.586   6.718  12.400  0.4497 -0.0733  0.6861
 9574SOL    HW130163   1.557   6.809  12.402 -0.7705 -0.4300  0.6163
 9574SOL    HW230164   1.617   6.704  12.310  0.3636  0.1988  0.6139
 9575SOL     OW30165   7.633   3.513  11.405 -0.8109  0.0305  0.4466
 9575SOL    HW130166   7.631   3.509  11.309 -0.4099  0.9401  0.3823
 9575SOL    HW230167   7.690   3.588  11.424  0.1692 -0.9180  1.4097
 9576SOL     OW30168   4.422   2.682   8.080  0.8944 -0.4852  0.0369
 9576SOL    HW130169   4.464   2.597   8.095  1.7208 -0.7767 -3.1536
 9576SOL    HW230170   4.481   2.727   8.020 -0.4783  1.5948  0.1740
 9577SOL     OW30171   3.203   1.440   3.630 -0.8027 -0.1118 -0.1408
 9577SOL    HW130172   3.206   1.491   3.711 -2.6152 -1.0262  0.5654
 9577SOL    HW230173   3.244   1.357   3.652  0.4951  0.3494 -0.7579
 9578SOL     OW30174   2.161   0.048   9.829  0.2395  0.4869 -0.0283
 9578SOL    HW130175   2.217  -0.029   9.841  1.5938  1.6543  1.6180
 9578SOL    HW230176   2.172   0.098   9.910 -0.3050  2.5994 -1.2097
 9579SOL     OW30177   5.980   0.986   6.691  0.3400 -0.0412  0.0244
 9579SOL    HW130178   6.022   1.012   6.773  2.4585 -2.6126 -0.1152
 9579SOL    HW230179   5.922   0.914   6.716 -1.3781  1.1314 -0.3656
 9580SOL     OW30180   1.170   4.723   6.951 -0.4107  0.0757  0.7968
 9580SOL    HW130181   1.196   4.760   6.867 -0.3388 -1.7910 -0.0668
 9580SOL    HW230182   1.222   4.643   6.959 -1.7446 -0.7491  1.7249
 9581SOL     OW30183   5.470   1.823   0.978 -0.1099 -0.0383  0.3505
 9581SOL    HW130184   5.458   1.916   0.961  1.1569  0.0668 -0.1017
 9581SOL    HW230185   5.553   1.818   1.026  0.6518 -1.0477 -1.0066
 9582SOL     OW30186   1.560   3.164   7.243  0.5479  0.1855  0.1747
 9582SOL    HW130187   1.533   3.231   7.306 -2.6413 -0.3364 -0.5046
 9582SOL    HW230188   1.623   3.210   7.186 -1.1304  2.5140  0.0337
 9583SOL     OW30189   0.941   7.914   6.745  0.3653  0.2972  0.3847
 9583SOL    HW130190   1.010   7.952   6.691  0.8502  0.2129  0.9294
 9583SOL    HW230191   0.876   7.882   6.683  0.1984  1.5359 -0.1031
 9584SOL     OW30192   2.428   5.851  10.125  0.5036  0.2540 -0.8644
 9584SOL    HW130193   2.431   5.763  10.089 -1.2309 -0.7468  1.2207
 9584SOL    HW230194   2.497   5.853  10.191 -0.0774  0.1001 -0.2386
 9585SOL     OW30195   3.436   4.189   3.488 -0.1730 -0.5008  0.0084
 9585SOL    HW130196   3.366   4.176   3.424  0.1964 -1.1151 -0.2694
 9585SOL    HW230197   3.515   4.158   3.446  0.4179  0.8388  0.0606
 9586SOL     OW30198   0.247   4.692   3.789  0.0137  0.1285 -0.2295
 9586SOL    HW130199   0.223   4.602   3.765  0.7932  0.0346 -0.6833
 9586SOL    HW230200   0.334   4.705   3.751  0.5752  0.5581  1.1395
 9587SOL     OW30201   7.252   3.159   5.314  0.2100 -0.3770 -0.3481
 9587SOL    HW130202   7.199   3.187   5.389 -1.5552 -2.0666 -0.8622
 9587SOL    HW230203   7.267   3.239   5.264  1.0642  0.7187  1.5436
 9588SOL     OW30204   5.616   4.946   4.391 -0.5353  0.1043  0.4991
 9588SOL    HW130205   5.619   5.041   4.389  2.5655  0.1557 -2.1120
 9588SOL    HW230206   5.674   4.922   4.464  0.9565  0.3435 -0.5513
 9589SOL     OW30207   4.615   5.234  11.789 -0.2434  0.7529 -0.4085
 9589SOL    HW130208   4.587   5.142  11.785  0.0082  0.4484  2.4766
 9589SOL    HW230209   4.539   5.280  11.826  1.0244  0.8711  2.2818
 9590SOL     OW30210   6.067   3.475  10.129  0.7788 -0.2732  0.4286
 9590SOL    HW130211   6.037   3.423  10.203  1.5469 -1.4002 -0.0238
 9590SOL    HW230212   6.121   3.415  10.078 -0.0503  0.3438 -1.2682
 9591SOL     OW30213   2.431   4.827   5.655 -0.1212  0.1486 -0.0935
 9591SOL    HW130214   2.341   4.803   5.636  0.5468 -1.1019 -1.9171
 9591SOL    HW230215   2.430   4.855   5.747 -2.2443 -0.3180  0.0595
 9592SOL     OW30216   1.988   4.340   8.001 -0.0761 -0.0514  0.2713
 9592SOL    HW130217   1.949   4.325   7.915 -0.1591 -1.6059  0.5504
 9592SOL    HW230218   2.050   4.268   8.012  0.7244  0.7352  1.0746
 9593SOL     OW30219   4.007   7.754   8.948 -0.4600  0.1129  0.7316
 9593SOL    HW130220   4.081   7.731   9.004 -1.0246  0.2294  1.5348
 9593SOL    HW230221   3.968   7.670   8.923 -1.5925  0.0989  2.4104
 9594SOL     OW30222   6.629   2.763   6.119  0.1368  0.2521  0.4759
 9594SOL    HW130223   6.674   2.842   6.087 -1.4517  1.1361  0.3457
 9594SOL    HW230224   6.568   2.795   6.185 -0.0092 -0.9853  0.9713
 9595SOL     OW30225   7.381   3.120  11.679 -0.3475  0.3892 -0.1771
 9595SOL    HW130226   7.368   3.052  11.745 -0.6835  1.4442  0.8910
 9595SOL    HW230227   7.296   3.164  11.675 -0.5083 -0.0305 -1.7731
 9596SOL     OW30228   2.289   1.216  10.347  0.6083  0.2901 -0.2642
 9596SOL    HW130229   2.220   1.209  10.414  1.1973  1.6941  0.5337
 9596SOL    HW230230   2.370   1.197  10.395  0.9724  0.6668 -0.7273
 9597SOL     OW30231   2.808   1.163   6.122 -0.6863 -0.4498  0.2618
 9597SOL    HW130232   2.727   1.134   6.081 -0.5162 -0.8107  0.1831
 9597SOL    HW230233   2.823   1.250   6.086 -0.7311 -0.6179 -0.1614
 9598SOL     OW30234   1.186   4.355   5.596 -0.1179  0.1472  0.3373
 9598SOL    HW130235   1.263   4.321   5.551  0.6769  0.7420  1.1978
 9598SOL    HW230236   1.184   4.309   5.680 -1.5459 -0.9141 -0.2390
 9599SOL     OW30237   5.288   1.185   5.988 -0.6813  0.0602  0.0392
 9599SOL    HW130238   5.236   1.198   5.909  2.3913 -2.1208 -2.6487
 9599SOL    HW230239   5.239   1.121   6.040 -1.8371 -0.0380 -1.1210
 9600SOL     OW30240   1.364   2.860   1.770  0.3824  0.2805 -0.1923
 9600SOL    HW130241   1.423   2.823   1.705  2.4394  1.5608  0.8502
 9600SOL    HW230242   1.358   2.953   1.747 -0.8240  0.2835  0.0563
 9601SOL     OW30243   4.202   0.286  11.075 -0.1096 -0.1943 -0.1028
 9601SOL    HW130244   4.131   0.225  11.098 -0.4641  0.1106 -0.3792
 9601SOL    HW230245   4.157   0.367  11.051  0.3591  0.1449  0.1608
 9602SOL     OW30246   2.175   1.289   1.804  0.3668 -0.0572 -0.2676
 9602SOL    HW130247   2.255   1.257   1.848  0.5671  0.6266 -0.1324
 9602SOL    HW230248   2.168   1.380   1.830 -1.3998 -0.5242  1.0861
 9603SOL     OW30249   6.038   7.166  10.875 -0.0387 -0.1523  0.4937
 9603SOL    HW130250   6.097   7.198  10.943  0.6586 -1.5569  0.5890
 9603SOL    HW230251   6.049   7.228  10.803  0.7381  0.2277  0.9202
 9604SOL     OW30252   6.613   0.090   9.933 -0.5077 -0.6301  0.4405
 9604SOL    HW130253   6.651   0.003   9.942 -0.5989 -0.9286 -1.6719
 9604SOL    HW230254   6.671   0.146   9.985  0.8940 -1.6033 -0.0170
 9605SOL     OW30255   1.029   7.959   2.121 -0.7885 -0.0212 -0.7033
 9605SOL    HW130256   1.003   7.970   2.212  0.2751  0.8173 -0.4753
 9605SOL    HW230257   1.072   8.042   2.098 -1.2898 -0.1128 -2.0557
 9606SOL     OW30258   4.580   0.666  11.597 -0.2352  0.1881 -0.3741
 9606SOL    HW130259   4.602   0.716  11.676 -0.3459 -0.5856  0.1593
 9606SOL    HW230260   4.585   0.575  11.625  1.2840 -0.1652 -1.6683
 9607SOL     OW30261   4.722   0.116   5.722 -0.2570  0.0158 -0.1138
 9607SOL    HW130262   4.714   0.041   5.781 -1.7830  0.6036  0.4844
 9607SOL    HW230263   4.790   0.091   5.660  0.3346 -1.2390  0.9849
 9608SOL     OW30264   7.477   0.121   2.471  0.0271  0.1729 -0.1143
 9608SOL    HW130265   7.475   0.176   2.393  0.0597  0.1761 -0.1132
 9608SOL    HW230266   7.413   0.160   2.530 -0.7369 -0.4207 -0.5269
 9609SOL     OW30267   6.936   1.725   6.681 -0.2685 -0.3826 -0.2604
 9609SOL    HW130268   6.845   1.733   6.651 -0.5009  0.8309  0.6909
 9609SOL    HW230269   6.981   1.799   6.640 -0.2165  0.2913  0.9669
 9610SOL     OW30270   2.006   5.369   8.429 -0.8608 -0.2501 -0.0864
 9610SOL    HW130271   2.072   5.303   8.451 -0.8946 -0.0911  0.5092
 9610SOL    HW230272   1.991   5.357   8.335  0.5179  0.1589 -0.3843
 9611SOL     OW30273   0.167   1.514   6.075 -0.1969  0.7469 -0.4861
 9611SOL    HW130274   0.182   1.605   6.100  0.8759  0.4291  0.0793
 9611SOL    HW230275   0.094   1.485   6.130 -0.3656  1.1741 -0.4788
 9612SOL     OW30276   7.349   5.412   5.371  0.3732  0.0616 -0.2074
 9612SOL    HW130277   7.371   5.320   5.364  0.5001  0.1983 -2.2185
 9612SOL    HW230278   7.269   5.414   5.424 -0.3936 -1.3544 -1.2462
 9613SOL     OW30279   1.968   5.867   3.853  0.1691  0.2111  0.3264
 9613SOL    HW130280   1.950   5.923   3.928  2.3305 -1.0547  1.9117
 9613SOL    HW230281   1.887   5.868   3.802 -0.6680  2.7574  1.5616
 9614SOL     OW30282   7.516   6.251   7.126  0.0576  0.4656  0.0223
 9614SOL    HW130283   7.424   6.235   7.146 -0.4105  1.0425 -1.5669
 9614SOL    HW230284   7.563   6.217   7.202 -1.3283 -1.7269 -0.0205
 9615SOL     OW30285   6.904   6.175   6.582  0.0969  0.5255 -1.4323
 9615SOL    HW130286   6.871   6.089   6.606  0.5188  0.9646  0.9408
 9615SOL    HW230287   6.828   6.222   6.549 -0.4017 -0.3000 -1.4823
 9616SOL     OW30288   4.725   1.765   4.791 -0.5711  0.2107 -0.1760
 9616SOL    HW130289   4.811   1.737   4.822 -1.2096 -0.2834  1.2294
 9616SOL    HW230290   4.703   1.705   4.720  0.1446  0.1997 -0.3872
 9617SOL     OW30291   6.061   7.355   1.882 -0.4279 -0.6417 -0.2750
 9617SOL    HW130292   6.102   7.439   1.899 -0.0338 -0.5090 -1.7541
 9617SOL    HW230293   5.994   7.347   1.950 -0.5767  0.9325 -0.1972
 9618SOL     OW30294   3.061   0.012   8.520  0.0065 -0.1959  0.2421
 9618SOL    HW130295   3.135   0.060   8.556 -0.8395  0.5021  1.1301
 9618SOL    HW230296   3.065  -0.074   8.563  0.2841 -0.1420  0.3223
 9619SOL     OW30297   4.519   4.870   2.329  0.6129  0.1064 -0.4560
 9619SOL    HW130298   4.511   4.952   2.379  1.7508 -0.3249  0.4885
 9619SOL    HW230299   4.442   4.869   2.273 -3.0411 -1.2153  3.9876
 9620SOL     OW30300   7.388   2.928   1.144 -0.7027 -0.7191  0.1473
 9620SOL    HW130301   7.375   3.021   1.160  1.2502 -0.8215  3.0859
 9620SOL    HW230302   7.330   2.884   1.206  0.0946 -1.3805  0.4526
 9621SOL     OW30303   6.980   6.917   0.129  0.1449 -0.0929  0.3374
 9621SOL    HW130304   6.994   7.012   0.127  1.0052 -0.1483  1.8068
 9621SOL    HW230305   6.885   6.907   0.135  0.0528  0.6909  0.3285
 9622SOL     OW30306   1.691   5.628   6.449 -0.1420  0.2653  0.2116
 9622SOL    HW130307   1.624   5.571   6.411 -1.1266 -0.1251  2.3791
 9622SOL    HW230308   1.773   5.593   6.416 -0.6937 -2.6131  1.5565
 9623SOL     OW30309   5.121   5.661   4.646  0.0780  0.7516  0.2557
 9623SOL    HW130310   5.063   5.640   4.573 -2.3454  1.7944  1.7520
 9623SOL    HW230311   5.143   5.753   4.632 -1.2068  1.2460  1.2908
 9624SOL     OW30312   4.062   6.136   2.372 -0.2081  0.2077 -0.3035
 9624SOL    HW130313   4.133   6.072   2.368  0.0332  0.5194 -2.4471
 9624SOL    HW230314   3.985   6.085   2.399  0.2936 -0.6821 -0.5014
 9625SOL     OW30315   7.363   7.561   6.701 -0.0483 -0.5599  0.7362
 9625SOL    HW130316   7.382   7.467   6.700 -0.7117 -0.7115  1.4503
 9625SOL    HW230317   7.285   7.569   6.755  0.6388  0.5118  1.6210
 9626SOL     OW30318   6.269   1.013  12.062 -0.1715 -0.4719  0.3120
 9626SOL    HW130319   6.308   0.973  12.140 -1.5861 -0.7604  0.9067
 9626SOL    HW230320   6.178   0.984  12.064 -0.3723 -0.0051 -1.1474
 9627SOL     OW30321   1.574   5.736  10.212  0.5667  0.2471  0.3131
 9627SOL    HW130322   1.663   5.750  10.180  0.3656  0.5259 -0.1373
 9627SOL    HW230323   1.583   5.671  10.282  1.0385 -0.2139 -0.1709
 9628SOL     OW30324   6.132   5.682   1.942  0.0408  0.4717  0.7058
 9628SOL    HW130325   6.096   5.712   1.859 -1.1284  0.7994  1.3083
 9628SOL    HW230326   6.101   5.747   2.006 -0.9351 -0.9403  1.7330
 9629SOL     OW30327   2.167   5.174   6.744  0.4357  0.4841  0.0809
 9629SOL    HW130328   2.192   5.236   6.676  1.7820  1.9780  1.8079
 9629SOL    HW230329   2.213   5.093   6.721  0.0601  0.6456 -1.2919
 9630SOL     OW30330   0.108   3.583   8.736  0.3411  0.3990 -0.0925
 9630SOL    HW130331   0.075   3.657   8.686 -0.7388  0.0568  0.0927
 9630SOL    HW230332   0.036   3.559   8.795  0.3390 -1.3252 -0.7425
 9631SOL     OW30333   3.512   7.020  12.242 -0.4885 -0.5090  0.3188
 9631SOL    HW130334   3.565   7.054  12.314 -0.1443  1.0858 -0.6398
 9631SOL    HW230335   3.519   6.924  12.250  2.7050 -0.3900  0.1548
 9632SOL     OW30336   4.403   6.689  10.687  0.1557 -0.1375 -0.1070
 9632SOL    HW130337   4.311   6.715  10.696  0.0523 -0.8221  0.9276
 9632SOL    HW230338   4.448   6.770  10.660 -0.3068  0.9715  2.1528
 9633SOL     OW30339   4.107   3.249   3.378 -0.2799 -0.1957 -0.2721
 9633SOL    HW130340   4.045   3.240   3.306  0.0106 -0.9290 -0.4357
 9633SOL    HW230341   4.123   3.159   3.408 -0.1590  0.0761  0.5004
 9634SOL     OW30342   6.334   6.716  11.101 -0.1443 -0.2277  0.4352
 9634SOL    HW130343   6.247   6.699  11.065 -0.2142 -0.2717  0.6234
 9634SOL    HW230344   6.355   6.638  11.151  0.9809 -1.2057 -1.4699
 9635SOL     OW30345   6.965   2.242   1.834 -0.4881  0.4996 -0.2497
 9635SOL    HW130346   6.968   2.337   1.847  1.5114  0.2962  1.2403
 9635SOL    HW230347   6.931   2.208   1.917  1.5179 -0.1991  0.3455
 9636SOL     OW30348   5.920   2.407   5.578 -0.3470  0.3511 -0.4043
 9636SOL    HW130349   6.010   2.431   5.558 -0.9544  1.4924 -1.8922
 9636SOL    HW230350   5.910   2.426   5.672  0.9348  0.2224 -0.2307
 9637SOL     OW30351   3.323   7.092   8.771  0.0149  0.0539  0.2418
 9637SOL    HW130352   3.258   7.024   8.757 -0.5260  0.9348 -1.8708
 9637SOL    HW230353   3.407   7.048   8.758 -0.3125 -0.3293 -0.6616
 9638SOL     OW30354   3.566   0.305   4.955 -0.3759  0.0215 -0.8174
 9638SOL    HW130355   3.614   0.247   5.015 -0.2054 -1.5434 -2.3806
 9638SOL    HW230356   3.481   0.319   4.998  0.5064  0.7222  0.7710
 9639SOL     OW30357   2.992   5.270  10.591 -0.2658 -0.3364  0.4540
 9639SOL    HW130358   3.005   5.341  10.655 -1.2406 -1.0059  1.4203
 9639SOL    HW230359   2.999   5.190  10.643 -0.3204 -0.9188 -0.4320
 9640SOL     OW30360   0.104   7.639   7.735  0.0813 -0.1917 -0.2102
 9640SOL    HW130361   0.039   7.601   7.795  0.5846 -0.4495  0.1777
 9640SOL    HW230362   0.188   7.618   7.775  0.4096 -0.0141 -0.8044
 9641SOL     OW30363   4.409   2.002   5.884 -0.4778  0.3351  0.3770
 9641SOL    HW130364   4.328   1.971   5.924 -0.5160  1.1753  0.9823
 9641SOL    HW230365   4.387   2.018   5.792 -1.1292  0.9823  0.6327
 9642SOL     OW30366   1.667   1.574  11.876  0.2299 -0.0212  0.1816
 9642SOL    HW130367   1.682   1.566  11.782  2.3442 -0.3122  0.5000
 9642SOL    HW230368   1.719   1.504  11.915 -2.4257 -1.4239  1.4952
 9643SOL     OW30369   6.212   0.927   5.125 -0.4934  0.0236  0.2546
 9643SOL    HW130370   6.293   0.927   5.176 -0.5392  0.5990  0.3323
 9643SOL    HW230371   6.223   1.001   5.064 -0.2763 -0.8742 -0.8230
 9644SOL     OW30372   3.326   4.546   8.347 -0.5011 -0.1693  0.6035
 9644SOL    HW130373   3.236   4.517   8.360 -0.8198  0.5167 -0.0683
 9644SOL    HW230374   3.319   4.634   8.312  0.3307 -1.2589 -2.6400
 9645SOL     OW30375   4.047   7.766   2.969  0.3803 -0.1577  0.2536
 9645SOL    HW130376   4.016   7.803   2.886  0.2563 -1.1186 -0.1351
 9645SOL    HW230377   4.142   7.760   2.959  0.2018 -2.1673 -0.6381
 9646SOL     OW30378   5.060   0.791   7.753  0.3985 -0.6799 -0.3424
 9646SOL    HW130379   5.002   0.829   7.819  2.0944 -0.6958  1.2346
 9646SOL    HW230380   5.024   0.704   7.736  1.1733 -1.6099  2.3354
 9647SOL     OW30381   0.902   2.188   9.748  0.4768 -0.0068 -0.0682
 9647SOL    HW130382   0.986   2.194   9.795  1.2997  0.9483 -1.5669
 9647SOL    HW230383   0.923   2.142   9.667 -0.5299 -0.0910 -0.2881
 9648SOL     OW30384   0.736   0.528   3.726  0.3636 -0.2489  0.3507
 9648SOL    HW130385   0.770   0.542   3.637 -1.2828  1.5931 -0.0596
 9648SOL    HW230386   0.784   0.590   3.780  1.6707 -1.6701  0.8677
 9649SOL     OW30387   4.521   4.796  10.397  0.6167 -0.8756 -0.8567
 9649SOL    HW130388   4.471   4.733  10.345 -1.0730 -0.2438 -0.0788
 9649SOL    HW230389   4.492   4.882  10.367 -0.0696 -0.4944  0.7465
 9650SOL     OW30390   0.539   6.098   3.071 -0.6217  0.0229  0.4057
 9650SOL    HW130391   0.512   6.027   3.129 -0.9194  0.9103  1.3908
 9650SOL    HW230392   0.609   6.061   3.017 -1.5487 -1.3512  0.0868
 9651SOL     OW30393   4.289   3.903   4.885  0.2192  0.3521  0.2579
 9651SOL    HW130394   4.248   3.956   4.954 -0.0530  1.7168 -0.9114
 9651SOL    HW230395   4.381   3.897   4.911  0.0560  0.5729  0.9084
 9652SOL     OW30396   1.461   2.138  11.747  0.1813  0.2419 -0.1431
 9652SOL    HW130397   1.514   2.165  11.672 -0.3946 -0.2276 -0.7296
 9652SOL    HW230398   1.445   2.220  11.795  1.1879  0.4270 -0.1114
 9653SOL     OW30399   3.600   2.464   5.604  0.2339 -0.2287 -0.2079
 9653SOL    HW130400   3.533   2.396   5.600  0.0463 -0.0776  0.3054
 9653SOL    HW230401   3.646   2.457   5.520 -0.8226  0.0809 -0.8312
 9654SOL     OW30402   7.458   1.230   0.011  0.2339  0.0553  0.0392
 9654SOL    HW130403   7.396   1.233   0.083 -0.5815 -2.4467 -0.4471
 9654SOL    HW230404   7.516   1.156   0.032  2.7985  1.9936  0.2327
 9655SOL     OW30405   0.623   0.696  10.759  0.3653 -0.7818 -0.0290
 9655SOL    HW130406   0.699   0.662  10.807 -0.3122 -1.4894  0.5676
 9655SOL    HW230407   0.655   0.710  10.670  0.5469 -3.6263 -0.5126
 9656SOL     OW30408   3.815   2.000   5.961  0.7744 -0.3174 -0.1283
 9656SOL    HW130409   3.875   2.074   5.955  0.0716  0.4896  1.8343
 9656SOL    HW230410   3.740   2.024   5.908  1.4097 -0.5555 -1.1580
 9657SOL     OW30411   6.879   2.323   7.187 -0.1668  0.0813  0.1955
 9657SOL    HW130412   6.858   2.361   7.273  0.4262  0.9953 -0.0554
 9657SOL    HW230413   6.805   2.348   7.132  0.3606  1.1667 -0.0474
 9658SOL     OW30414   1.770   2.862  11.969 -0.6221 -0.3909  0.0472
 9658SOL    HW130415   1.795   2.877  11.877  0.0000 -0.6570  0.1642
 9658SOL    HW230416   1.702   2.926  11.986  0.0309  0.4074 -0.2772
 9659SOL     OW30417   0.503   1.227  11.609 -0.2062  0.5154  0.5364
 9659SOL    HW130418   0.540   1.295  11.552  0.1925 -0.3568 -0.2779
 9659SOL    HW230419   0.444   1.178  11.552  1.4596 -1.4228  0.3575
 9660SOL     OW30420   5.277   0.947   6.492  0.0424 -0.3486  0.2116
 9660SOL    HW130421   5.252   0.926   6.402  0.9782 -0.7865  0.0449
 9660SOL    HW230422   5.215   0.899   6.546 -2.3337  2.0648 -0.1380
 9661SOL     OW30423   5.536   1.466   1.860  0.4654  0.1098 -0.0023
 9661SOL    HW130424   5.528   1.510   1.945 -1.9224 -0.0375 -0.0625
 9661SOL    HW230425   5.455   1.489   1.814  1.0461 -1.0005 -1.6735
 9662SOL     OW30426   4.502   1.422   4.586  0.1633  0.0556  0.6335
 9662SOL    HW130427   4.551   1.423   4.504 -1.7130 -3.4936 -0.7553
 9662SOL    HW230428   4.416   1.458   4.563 -0.4676 -1.2176  0.8986
 9663SOL     OW30429   6.235   0.871   7.597 -0.0437  0.1102 -0.3459
 9663SOL    HW130430   6.237   0.780   7.570  2.0101  0.2998 -1.0015
 9663SOL    HW230431   6.234   0.868   7.693  1.2671 -0.6157 -0.3465
 9664SOL     OW30432   3.881   7.182  10.793  0.4424 -0.3238  0.2456
 9664SOL    HW130433   3.901   7.273  10.811 -3.6708  0.4590  2.1387
 9664SOL    HW230434   3.955   7.133  10.828  1.6678  2.1974  1.3963
 9665SOL     OW30435   6.269   6.180   8.549 -0.3954  0.0528  0.2269
 9665SOL    HW130436   6.198   6.231   8.510 -0.3028  0.0094 -0.0036
 9665SOL    HW230437   6.228   6.097   8.574 -0.3670 -0.0800 -0.1608
 9666SOL     OW30438   3.479   1.339   1.326 -0.0770  0.2230 -0.8901
 9666SOL    HW130439   3.504   1.418   1.374  0.9629 -1.4473  1.5367
 9666SOL    HW230440   3.490   1.362   1.233  0.3125  2.8441 -0.2570
 9667SOL     OW30441   0.078   3.104   0.087  0.2734 -0.0859 -0.9216
 9667SOL    HW130442   0.004   3.077   0.141 -1.6945 -0.8798 -3.7917
 9667SOL    HW230443   0.151   3.050   0.118 -0.6898 -0.3595  1.0049
 9668SOL     OW30444   1.750   5.404  11.270  0.1018  0.2356 -0.1378
 9668SOL    HW130445   1.715   5.333  11.324  3.1007  0.0533  1.7871
 9668SOL    HW230446   1.731   5.483  11.320  0.2735  0.3919 -0.3208
 9669SOL     OW30447   6.218   6.255  12.310 -0.0178  0.3431 -0.4523
 9669SOL    HW130448   6.285   6.304  12.358 -0.2220  1.0110 -0.8398
 9669SOL    HW230449   6.222   6.290  12.221 -0.5022 -0.0070 -0.6110
 9670SOL     OW30450   5.722   4.864   6.227  0.0858 -0.2321 -0.4510
 9670SOL    HW130451   5.768   4.904   6.153 -0.4627  1.3244  0.0209
 9670SOL    HW230452   5.791   4.820   6.277  0.8013  0.5762 -0.6994
 9671SOL     OW30453   2.745   3.881   2.027  0.3689 -0.1618  0.3679
 9671SOL    HW130454   2.767   3.975   2.030  3.6288 -0.8384  1.6804
 9671SOL    HW230455   2.666   3.877   1.973  0.2744  3.3005  0.0204
 9672SOL     OW30456   0.453   1.678   3.494 -0.2850 -0.1986  0.1289
 9672SOL    HW130457   0.509   1.720   3.429  0.8559 -0.5579  0.8415
 9672SOL    HW230458   0.504   1.680   3.574 -1.1310 -0.9255  0.7050
 9673SOL     OW30459   0.740   4.167   1.570  0.0177 -0.4759  0.1875
 9673SOL    HW130460   0.797   4.184   1.495 -0.4766 -2.7594 -0.7913
 9673SOL    HW230461   0.801   4.149   1.642  0.6968 -3.3942 -0.9627
 9674SOL     OW30462   5.515   4.683   0.238 -0.2826 -0.1349  0.3469
 9674SOL    HW130463   5.538   4.745   0.169 -1.0625 -0.2498 -0.0251
 9674SOL    HW230464   5.451   4.729   0.292 -1.2551 -0.7785 -0.2282
 9675SOL     OW30465   5.734   4.447   7.644 -0.6338  0.0520  0.1108
 9675SOL    HW130466   5.663   4.509   7.659 -1.2395 -0.7046  0.4278
 9675SOL    HW230467   5.729   4.387   7.719 -0.6954 -0.9775 -0.7020
 9676SOL     OW30468   2.449   7.597   2.975 -0.1511  0.3791 -0.1785
 9676SOL    HW130469   2.395   7.607   2.896 -0.4227  0.4508  0.0164
 9676SOL    HW230470   2.508   7.672   2.973  2.3220 -1.4525 -2.2346
 9677SOL     OW30471   1.712   1.168   2.096  0.2933  0.1134 -0.0195
 9677SOL    HW130472   1.792   1.190   2.048  1.1425 -2.7110 -0.0975
 9677SOL    HW230473   1.642   1.182   2.032  0.9752  0.4230 -0.7240
 9678SOL     OW30474   3.270   1.403  10.046 -0.5510 -0.5297 -0.2763
 9678SOL    HW130475   3.340   1.432  10.106 -0.8766  0.8080 -0.5065
 9678SOL    HW230476   3.197   1.462  10.065 -1.1450 -1.0164 -1.0171
 9679SOL     OW30477   4.011   2.569   8.359  0.6154 -0.2186  0.2144
 9679SOL    HW130478   4.020   2.542   8.451  1.4324  0.9110  0.4835
 9679SOL    HW230479   4.099   2.563   8.323  0.8455  1.9349  0.2769
 9680SOL     OW30480   1.579   4.989   1.326 -0.8093 -0.2918 -0.1673
 9680SOL    HW130481   1.633   4.973   1.249 -2.2281 -0.1132 -1.2338
 9680SOL    HW230482   1.577   5.084   1.335 -0.0086 -0.3320  0.5828
 9681SOL     OW30483   6.016   5.830   5.113  0.0637 -0.2679 -0.2833
 9681SOL    HW130484   6.016   5.762   5.045 -1.7176  0.1716 -0.7923
 9681SOL    HW230485   5.933   5.817   5.159  0.6587  0.2663  0.9859
 9682SOL     OW30486   5.742   5.865   3.757  0.4455  0.3149 -1.0198
 9682SOL    HW130487   5.751   5.897   3.667  0.6770  0.1407 -1.0561
 9682SOL    HW230488   5.653   5.891   3.781  0.3259  0.2240 -1.3516
 9683SOL     OW30489   0.508   3.259   2.748 -0.5176  0.1491 -0.0915
 9683SOL    HW130490   0.539   3.169   2.753 -1.8537 -0.2728  1.6296
 9683SOL    HW230491   0.574   3.310   2.796 -0.8671 -0.2847  0.8910
 9684SOL     OW30492   4.459   7.928   9.135 -0.2964 -0.0132  0.2050
 9684SOL    HW130493   4.464   7.836   9.160  1.4220 -0.3337 -1.1063
 9684SOL    HW230494   4.502   7.975   9.208  2.8463 -0.7424 -1.0019
 9685SOL     OW30495   1.627   4.359   0.885 -0.2336  0.4062 -0.1140
 9685SOL    HW130496   1.558   4.421   0.863 -0.6358 -0.0958 -0.2724
 9685SOL    HW230497   1.642   4.309   0.805  0.6967  0.8693 -0.2466
 9686SOL     OW30498   2.158   1.974   1.883 -0.5760  0.5989  0.1266
 9686SOL    HW130499   2.099   1.958   1.956  0.8396  2.5077  1.8004
 9686SOL    HW230500   2.126   2.055   1.844 -1.0344 -0.1548 -1.1259
 9687SOL     OW30501   2.174   7.759   7.520 -0.3965 -0.3006  0.1338
 9687SOL    HW130502   2.090   7.722   7.494  0.0392 -1.9869  0.9675
 9687SOL    HW230503   2.238   7.712   7.466  0.2643 -1.7598  2.0599
 9688SOL     OW30504   7.762   2.470   2.219 -0.3261  0.3074 -0.0388
 9688SOL    HW130505   7.759   2.375   2.229 -1.0202  0.3245 -0.0967
 9688SOL    HW230506   7.749   2.485   2.125 -1.3265  0.5072  0.1249
 9689SOL     OW30507   0.582   2.915  11.769  0.2770 -0.0307  0.1721
 9689SOL    HW130508   0.671   2.889  11.745  0.0623 -2.9490  2.0004
 9689SOL    HW230509   0.569   3.000  11.727  3.2597 -0.3264 -1.6191
 9690SOL     OW30510   4.885   5.741   2.548 -0.5955  0.0600  0.0296
 9690SOL    HW130511   4.953   5.747   2.615 -0.0663 -0.6431 -0.4373
 9690SOL    HW230512   4.904   5.660   2.500 -2.2140 -0.5853  0.3892
 9691SOL     OW30513   4.648   5.752   9.003  0.4240  0.3050  0.1639
 9691SOL    HW130514   4.644   5.818   9.072  1.2624  0.3544  0.1791
 9691SOL    HW230515   4.575   5.693   9.021  0.9905 -0.0333  1.4564
 9692SOL     OW30516   0.861   4.853   7.632  0.0420 -0.0010 -0.2237
 9692SOL    HW130517   0.889   4.931   7.681  0.9764  0.6085 -1.6601
 9692SOL    HW230518   0.924   4.786   7.658 -0.5036 -0.1768  0.6893
 9693SOL     OW30519   2.227   0.457  10.870 -0.4313  1.0410  0.1091
 9693SOL    HW130520   2.286   0.385  10.849  1.6428  2.0452  2.1236
 9693SOL    HW230521   2.171   0.422  10.940  1.3616  1.6605  1.9271
 9694SOL     OW30522   3.389   6.998   7.250 -0.1637 -0.1439  0.0238
 9694SOL    HW130523   3.425   7.036   7.330 -0.1709  1.6346 -0.7675
 9694SOL    HW230524   3.304   7.040   7.240 -0.5705 -1.0423 -0.4482
 9695SOL     OW30525   6.784   0.597  11.177  0.1722  0.4134 -0.3037
 9695SOL    HW130526   6.745   0.662  11.235  1.5247  0.2783  0.8308
 9695SOL    HW230527   6.749   0.513  11.207 -0.5042  0.4911 -0.8621
 9696SOL     OW30528   3.186   0.902   1.419  0.3897 -0.4983  0.4112
 9696SOL    HW130529   3.229   0.857   1.346  1.4620 -0.2734  0.8750
 9696SOL    HW230530   3.203   0.995   1.402  0.9478 -0.4615  1.1117
 9697SOL     OW30531   2.613   5.825   4.312 -0.2275 -0.3042 -0.4363
 9697SOL    HW130532   2.566   5.828   4.395  1.6623 -0.8193  0.7199
 9697SOL    HW230533   2.573   5.894   4.259 -1.5886 -0.0833  0.8270
 9698SOL     OW30534   6.617   7.023   6.998  0.0205  0.2830 -0.7405
 9698SOL    HW130535   6.599   7.103   6.949  0.3533  1.6136  1.2003
 9698SOL    HW230536   6.564   6.956   6.955  2.2790  0.6679 -4.5662
 9699SOL     OW30537   2.884   0.950   4.544 -0.3999  0.7769 -0.1096
 9699SOL    HW130538   2.895   1.030   4.596  0.8286 -0.7857  2.1959
 9699SOL    HW230539   2.916   0.974   4.457 -0.8391  2.9862  0.2638
 9700SOL     OW30540   5.480   2.183   5.614  0.2541 -0.0756  0.2898
 9700SOL    HW130541   5.447   2.099   5.582 -1.8913  0.9418 -0.3520
 9700SOL    HW230542   5.575   2.175   5.609  0.0993 -1.4023 -2.6933
 9701SOL     OW30543   6.120   1.879   6.500  0.0011  0.4231  0.1934
 9701SOL    HW130544   6.181   1.926   6.556  0.0547  0.2063  0.3204
 9701SOL    HW230545   6.112   1.792   6.541  0.5804  0.0283 -0.5174
 9702SOL     OW30546   1.137   1.347   2.377  0.0695 -0.3394 -0.4028
 9702SOL    HW130547   1.125   1.425   2.322 -0.6916  0.2873  0.6024
 9702SOL    HW230548   1.232   1.336   2.383  0.2522  1.4946  0.7424
 9703SOL     OW30549   2.338   3.737   0.802 -0.3839  0.0888 -0.2065
 9703SOL    HW130550   2.405   3.772   0.860 -0.0753 -0.0520 -0.4739
 9703SOL    HW230551   2.306   3.658   0.847  1.1655 -1.0819 -1.0698
 9704SOL     OW30552   4.099   1.940   3.994 -0.0910  0.0163  0.0419
 9704SOL    HW130553   4.112   1.846   3.986 -3.2663 -0.8071  2.6341
 9704SOL    HW230554   4.042   1.962   3.920 -2.1062 -0.8830  1.2350
 9705SOL     OW30555   3.548   4.007   2.678 -0.4658 -0.0723 -0.1891
 9705SOL    HW130556   3.634   3.993   2.719 -0.5795 -2.3010 -0.6125
 9705SOL    HW230557   3.490   4.027   2.751  0.0305 -0.4921  0.3279
 9706SOL     OW30558   7.520   0.742   0.790 -0.2402  0.4698 -0.2828
 9706SOL    HW130559   7.429   0.743   0.821 -0.3872 -1.0049 -0.5754
 9706SOL    HW230560   7.570   0.708   0.864  0.2504  2.2621  0.2392
 9707SOL     OW30561   6.342   3.420  11.685  0.4638 -0.1793 -0.0483
 9707SOL    HW130562   6.408   3.486  11.664  0.4953 -0.0878  0.3262
 9707SOL    HW230563   6.331   3.370  11.604  0.2696  0.4274 -0.3954
 9708SOL     OW30564   3.730   7.177   0.824  0.7493 -0.0383 -0.2208
 9708SOL    HW130565   3.813   7.223   0.833  0.5777  0.3711 -0.7205
 9708SOL    HW230566   3.752   7.096   0.779  1.0747 -0.5373  0.7884
 9709SOL     OW30567   2.566   1.778  11.582 -0.2766 -0.3847 -0.4577
 9709SOL    HW130568   2.568   1.871  11.559 -0.3857 -0.1326  0.5368
 9709SOL    HW230569   2.520   1.737  11.508 -0.5071  0.3847 -0.7574
 9710SOL     OW30570   5.334   0.818  12.419  0.0470 -0.2154 -0.1234
 9710SOL    HW130571   5.415   0.803  12.370  0.0969 -0.0146 -0.1037
 9710SOL    HW230572   5.307   0.906  12.393  1.1927  0.7628  1.7717
 9711SOL     OW30573   2.124   3.087   1.752  0.0429  0.4744  0.3643
 9711SOL    HW130574   2.165   3.027   1.814 -1.3686  0.6511  1.5091
 9711SOL    HW230575   2.072   3.031   1.694 -0.4711  0.4925  0.8006
 9712SOL     OW30576   6.204   4.835   9.892  0.2402 -0.2289  0.2202
 9712SOL    HW130577   6.273   4.867   9.833  0.4402 -0.1748  0.4861
 9712SOL    HW230578   6.242   4.839   9.979 -0.3521  0.5346  0.4618
 9713SOL     OW30579   5.507   3.116   9.003  0.1384 -0.2946  0.2765
 9713SOL    HW130580   5.471   3.082   9.084 -0.5276  0.9319  0.5196
 9713SOL    HW230581   5.430   3.133   8.948  0.4677  0.5883  0.0827
 9714SOL     OW30582   3.460   2.465   2.804  0.5691  0.3626 -0.7960
 9714SOL    HW130583   3.541   2.470   2.752  1.0646  1.1355  0.0218
 9714SOL    HW230584   3.420   2.552   2.795 -0.1999 -0.0259 -1.2220
 9715SOL     OW30585   4.646   1.498   7.061 -0.3400  0.2768  0.3114
 9715SOL    HW130586   4.716   1.517   7.123 -2.2340  1.1157  2.3303
 9715SOL    HW230587   4.592   1.577   7.061 -1.2579 -0.3079 -1.2498
 9716SOL     OW30588   0.667   1.036   4.227 -0.2256 -0.1947  0.5168
 9716SOL    HW130589   0.682   1.130   4.218  2.7540 -0.7514 -2.6245
 9716SOL    HW230590   0.623   1.011   4.146  1.8796 -1.8201 -0.2353
 9717SOL     OW30591   3.157   2.080   1.186  0.4234  0.3966  0.2765
 9717SOL    HW130592   3.172   2.075   1.281  0.7240  0.3631  0.2291
 9717SOL    HW230593   3.067   2.051   1.175  0.5452 -0.0867  0.5060
 9718SOL     OW30594   0.007   6.930   1.699  0.1729 -0.0346 -0.1124
 9718SOL    HW130595   0.046   6.976   1.624 -0.5384  0.0564 -0.4379
 9718SOL    HW230596   0.046   6.971   1.776  1.1337 -0.3241 -0.4327
 9719SOL     OW30597   4.933   6.280   0.222  0.4924 -0.1985 -0.2084
 9719SOL    HW130598   4.911   6.288   0.129 -0.7991  1.1086  0.1564
 9719SOL    HW230599   4.919   6.368   0.257  1.8289 -0.4598  1.0637
 9720SOL     OW30600   7.413   6.386   6.134 -0.3829 -0.1897  0.4727
 9720SOL    HW130601   7.386   6.464   6.182 -1.6564 -0.1690 -0.2430
 9720SOL    HW230602   7.333   6.334   6.125 -0.0585 -0.4750 -1.0954
 9721SOL     OW30603   4.903   5.642   5.175 -0.0054  0.0648  0.3767
 9721SOL    HW130604   4.896   5.736   5.189  0.6042  0.2519 -0.5070
 9721SOL    HW230605   4.970   5.632   5.107 -0.8281 -0.9423 -0.3195
 9722SOL     OW30606   2.736   4.141   6.827  0.2495  0.1319  0.3471
 9722SOL    HW130607   2.804   4.187   6.876 -0.8808  1.4602  0.7365
 9722SOL    HW230608   2.758   4.156   6.735  1.4537 -0.9682  0.4344
 9723SOL     OW30609   0.932   4.817   4.323  0.2797 -0.2897  0.3473
 9723SOL    HW130610   0.840   4.831   4.300  0.2881  0.2856  0.6333
 9723SOL    HW230611   0.978   4.893   4.287  0.5888 -0.4013  0.4999
 9724SOL     OW30612   3.115   0.736   1.760  0.2475 -0.1063  0.3573
 9724SOL    HW130613   3.078   0.691   1.683 -1.5199 -1.3944  1.8603
 9724SOL    HW230614   3.184   0.677   1.791 -2.0425 -1.9618  2.3037
 9725SOL     OW30615   3.782   5.741  12.106 -0.4123 -0.4400  0.6248
 9725SOL    HW130616   3.725   5.755  12.030  0.4306  0.4430  0.1235
 9725SOL    HW230617   3.846   5.813  12.101  0.1197 -0.8141  1.7427
 9726SOL     OW30618   0.162   5.739   6.758 -0.1024 -0.1887 -0.0039
 9726SOL    HW130619   0.127   5.780   6.838 -0.8222  0.1810 -0.4912
 9726SOL    HW230620   0.253   5.721   6.778 -0.6318 -1.5015  1.4565
 9727SOL     OW30621   1.063   2.924   7.029  0.1841  0.8812 -0.2143
 9727SOL    HW130622   0.968   2.928   7.033  0.2265  0.6891  1.6550
 9727SOL    HW230623   1.087   2.859   7.095  1.6156  0.9026 -0.6779
 9728SOL     OW30624   5.691   1.749  12.414  0.0651 -0.1294  0.1090
 9728SOL    HW130625   5.654   1.662  12.427 -0.4196  0.0773  0.1039
 9728SOL    HW230626   5.693   1.761  12.319  1.5475 -0.7404  0.0276
 9729SOL     OW30627   6.833   4.271   0.049  0.3646  0.5514 -0.0237
 9729SOL    HW130628   6.764   4.321   0.004  0.7124  1.9972  1.0053
 9729SOL    HW230629   6.914   4.298   0.005  0.4476  0.0872 -0.1560
 9730SOL     OW30630   1.069   5.319   8.272  0.7723 -0.2873  0.8764
 9730SOL    HW130631   0.986   5.271   8.273  0.2645  0.4823 -0.4584
 9730SOL    HW230632   1.057   5.389   8.336 -0.1363  0.5741 -0.1773
 9731SOL     OW30633   4.253   1.062   5.443  0.3908  0.7775 -0.3315
 9731SOL    HW130634   4.267   1.028   5.531 -2.4186  0.3467  0.0430
 9731SOL    HW230635   4.322   1.023   5.390  0.3010 -1.4616  1.0935
 9732SOL     OW30636   1.997   6.585   1.234  0.5969 -0.5980  0.4133
 9732SOL    HW130637   2.062   6.521   1.206  2.2831  1.0973  0.2270
 9732SOL    HW230638   1.978   6.636   1.155 -0.5159 -0.6658  0.6165
 9733SOL     OW30639   5.799   7.658  11.459  0.1438 -0.6867 -0.2011
 9733SOL    HW130640   5.880   7.694  11.423 -0.5326  0.3748 -0.6952
 9733SOL    HW230641   5.806   7.673  11.554  0.7422 -1.0713 -0.1766
 9734SOL     OW30642   6.445   4.755  11.599  0.0972 -0.4091  0.0148
 9734SOL    HW130643   6.358   4.791  11.583  1.0740  1.2275 -1.8549
 9734SOL    HW230644   6.466   4.783  11.688 -0.9818 -0.2536  0.2378
 9735SOL     OW30645   6.515   1.473   9.425 -0.0228  0.3232 -0.5815
 9735SOL    HW130646   6.435   1.526   9.435 -0.8369 -1.2456  2.7590
 9735SOL    HW230647   6.519   1.452   9.332 -1.7051  3.0564 -1.4049
 9736SOL     OW30648   0.555   0.326   3.714  0.5010  0.3393 -0.2028
 9736SOL    HW130649   0.602   0.402   3.681 -0.1528  0.5822 -0.5852
 9736SOL    HW230650   0.524   0.353   3.800 -1.1627  1.1311 -1.0053
 9737SOL     OW30651   0.686   1.154   8.775 -0.0216 -0.3717  0.4275
 9737SOL    HW130652   0.745   1.221   8.742 -1.2514  1.2221  1.3421
 9737SOL    HW230653   0.687   1.086   8.708  0.3631  1.0866 -1.1023
 9738SOL     OW30654   5.736   3.159   0.624 -0.5180 -0.2661 -0.1294
 9738SOL    HW130655   5.805   3.148   0.559  0.6838 -0.7904  1.1886
 9738SOL    HW230656   5.656   3.130   0.580  0.1053  0.2410 -1.6469
 9739SOL     OW30657   1.667   4.596   1.204  0.2966  0.2402  0.4652
 9739SOL    HW130658   1.662   4.500   1.196 -1.6646  0.3691 -0.1824
 9739SOL    HW230659   1.711   4.624   1.124 -0.4011 -0.0183 -0.0132
 9740SOL     OW30660   1.893   1.043   6.275  0.9890  0.7453  0.1132
 9740SOL    HW130661   1.818   1.024   6.332 -0.3580  2.8826 -0.8067
 9740SOL    HW230662   1.903   1.138   6.281  3.1116  0.6014 -0.4800
 9741SOL     OW30663   2.408   3.644   1.566  0.2030 -0.3353 -0.2046
 9741SOL    HW130664   2.426   3.616   1.656  0.6668  0.7080  0.0512
 9741SOL    HW230665   2.457   3.583   1.511  1.2509 -0.0058  0.3323
 9742SOL     OW30666   3.817   0.127   8.873  0.4597  0.3400  0.5633
 9742SOL    HW130667   3.858   0.131   8.959  2.1082 -1.9134 -0.0300
 9742SOL    HW230668   3.882   0.166   8.814 -0.3986  1.3077  0.2265
 9743SOL     OW30669   4.492   1.252   0.654 -0.2902 -0.2807 -0.1087
 9743SOL    HW130670   4.470   1.267   0.746 -1.2752 -0.5052 -0.2947
 9743SOL    HW230671   4.494   1.339   0.615  1.2558 -0.0829  0.3473
 9744SOL     OW30672   3.123   1.067   6.881  0.7481  0.8831 -0.4454
 9744SOL    HW130673   3.056   1.058   6.813  0.9800  0.1519 -0.5859
 9744SOL    HW230674   3.200   1.025   6.843  0.4298 -1.0053  0.8936
 9745SOL     OW30675   1.189   0.980   2.476 -0.0764 -0.6315  0.2254
 9745SOL    HW130676   1.125   0.996   2.546  0.7521 -0.9445  1.0782
 9745SOL    HW230677   1.141   0.999   2.395 -1.2399 -0.8394  0.8414
 9746SOL     OW30678   2.836   2.707   4.286  0.4485  0.0796  0.2479
 9746SOL    HW130679   2.846   2.770   4.216  0.3092 -0.4094 -0.2190
 9746SOL    HW230680   2.773   2.643   4.253 -0.1735  0.2281  1.0952
 9747SOL     OW30681   2.637   0.424   3.922 -0.0811 -0.1429 -0.2048
 9747SOL    HW130682   2.542   0.409   3.924  0.1352 -1.5976  0.4063
 9747SOL    HW230683   2.671   0.369   3.992  1.2210  0.4025 -0.3921
 9748SOL     OW30684   5.523   5.822   7.970  0.8233  0.0241 -0.3913
 9748SOL    HW130685   5.464   5.842   7.897 -0.3476 -0.5230  0.3643
 9748SOL    HW230686   5.546   5.907   8.007  0.4377  0.2463 -0.6633
 9749SOL     OW30687   6.816   1.735   1.074 -0.4682 -0.6146 -0.2636
 9749SOL    HW130688   6.880   1.783   1.128  1.0007 -0.3197 -2.1572
 9749SOL    HW230689   6.819   1.645   1.107  0.2601 -0.4043  0.2675
 9750SOL     OW30690   5.106   6.896   3.561  0.1463  0.0988  0.4526
 9750SOL    HW130691   5.191   6.857   3.538  0.4681  0.7375  0.5603
 9750SOL    HW230692   5.114   6.918   3.654  0.1117  0.8106  0.2859
 9751SOL     OW30693   6.232   4.889   3.411  0.2535  0.9346  0.1018
 9751SOL    HW130694   6.291   4.857   3.343  0.2766 -1.2562  1.0818
 9751SOL    HW230695   6.189   4.965   3.371 -2.0066 -1.9204 -3.6010
 9752SOL     OW30696   6.222   3.461   9.737  0.2163  0.0193 -0.1506
 9752SOL    HW130697   6.140   3.412   9.739 -0.2789  0.8176 -0.2002
 9752SOL    HW230698   6.197   3.551   9.761  0.9593  0.4312 -0.8522
 9753SOL     OW30699   5.711   2.832  10.999 -0.3166  0.1352 -0.4710
 9753SOL    HW130700   5.746   2.814  10.913  0.3596  1.5071 -0.5071
 9753SOL    HW230701   5.780   2.806  11.060 -1.3167 -2.1780 -0.1985
 9754SOL     OW30702   3.450   4.309  11.097 -0.1777 -0.1941 -0.2148
 9754SOL    HW130703   3.456   4.337  11.188  1.5448 -1.0979 -0.0107
 9754SOL    HW230704   3.391   4.233  11.099  1.8392 -1.8367  0.6290
 9755SOL     OW30705   5.077   7.829   2.826 -0.0917  0.4051 -0.4068
 9755SOL    HW130706   5.000   7.819   2.770 -1.5043  0.7796  1.4007
 9755SOL    HW230707   5.072   7.918   2.859 -0.2587 -0.3387  1.6738
 9756SOL     OW30708   1.310   5.797  11.584 -0.1892  0.2760 -0.3834
 9756SOL    HW130709   1.264   5.788  11.667 -0.1264  0.2681 -0.3496
 9756SOL    HW230710   1.375   5.865  11.599  1.1116 -1.0200  0.1408
 9757SOL     OW30711   2.097   1.540  12.139 -0.1867  0.2156 -0.5464
 9757SOL    HW130712   2.083   1.445  12.147 -0.2914  0.2856  0.1587
 9757SOL    HW230713   2.129   1.552  12.050  0.0417 -0.5162 -0.5717
 9758SOL     OW30714   2.090   3.529  10.697 -0.0686  0.0056  0.1161
 9758SOL    HW130715   2.111   3.605  10.750 -0.2826 -0.3883  0.7836
 9758SOL    HW230716   2.167   3.517  10.640  0.5777 -0.1161  0.9883
 9759SOL     OW30717   3.076   7.792  10.620 -0.4681 -0.1176  0.0833
 9759SOL    HW130718   3.166   7.812  10.647  0.0544 -3.3911  1.1957
 9759SOL    HW230719   3.086   7.743  10.538 -0.9457 -2.7295  1.4963
 9760SOL     OW30720   5.972   2.289  10.179  0.1661  0.4289  0.2204
 9760SOL    HW130721   5.999   2.197  10.172 -0.0375  0.3692  0.2322
 9760SOL    HW230722   6.006   2.318  10.263  1.3995  0.7458 -0.3597
 9761SOL     OW30723   5.263   4.667   8.841  0.0578 -0.1558  0.2745
 9761SOL    HW130724   5.173   4.700   8.847 -0.2561 -0.6765 -1.0877
 9761SOL    HW230725   5.291   4.690   8.753  1.5314  0.5870  0.9050
 9762SOL     OW30726   1.095   1.481   7.507  0.7422  0.6348  0.2482
 9762SOL    HW130727   1.071   1.461   7.597 -0.6662  0.9763 -0.0321
 9762SOL    HW230728   1.039   1.554   7.482 -0.3837 -0.7275 -1.5360
 9763SOL     OW30729   2.107   2.212   9.812  0.4096 -0.3556  0.3211
 9763SOL    HW130730   2.101   2.273   9.886  2.1354 -1.5477  1.5416
 9763SOL    HW230731   2.165   2.254   9.750  0.8868 -0.3513  0.7611
 9764SOL     OW30732   3.878   1.757   8.148  1.2151  0.0191 -0.7211
 9764SOL    HW130733   3.844   1.687   8.093  0.0966 -0.0024 -0.0204
 9764SOL    HW230734   3.853   1.837   8.102  0.6157 -0.0058 -0.4457
 9765SOL     OW30735   3.102   3.323  11.046 -0.3921  0.1508 -0.4352
 9765SOL    HW130736   3.040   3.387  11.011  1.1921  0.5741 -2.7130
 9765SOL    HW230737   3.154   3.371  11.110 -0.8585  0.4205 -0.2551
 9766SOL     OW30738   5.433   1.617  11.450  0.0527  0.8472 -0.1563
 9766SOL    HW130739   5.430   1.587  11.359  0.1983  0.0024  0.1107
 9766SOL    HW230740   5.484   1.698  11.447  2.8332 -0.7888 -0.4077
 9767SOL     OW30741   7.172   1.448   7.729  0.5955 -0.0115  0.5070
 9767SOL    HW130742   7.081   1.465   7.756  1.3183  2.4668  1.6618
 9767SOL    HW230743   7.183   1.354   7.743 -1.7368 -0.3698  0.4538
 9768SOL     OW30744   1.796   1.803   8.221  0.4500 -0.2193 -0.3624
 9768SOL    HW130745   1.790   1.850   8.305  1.3360  0.2925 -0.5632
 9768SOL    HW230746   1.711   1.818   8.179 -0.2736 -1.0832  0.7393
 9769SOL     OW30747   3.545   7.184  10.567 -0.0946 -0.0375 -0.1773
 9769SOL    HW130748   3.616   7.246  10.585  0.1486  0.3494 -2.1761
 9769SOL    HW230749   3.564   7.109  10.624  2.2823 -0.1841 -1.0306
 9770SOL     OW30750   3.185   1.551  12.149  0.4822  0.0571 -0.4413
 9770SOL    HW130751   3.267   1.520  12.186  1.4598  2.1129 -0.7462
 9770SOL    HW230752   3.203   1.563  12.056  0.8246  3.2243 -0.0878
 9771SOL     OW30753   2.913   1.223   3.194 -0.2549 -0.3778 -0.4364
 9771SOL    HW130754   2.987   1.221   3.134 -0.4508 -0.1785 -0.6858
 9771SOL    HW230755   2.854   1.155   3.161 -1.6122  1.5067 -2.0901
 9772SOL     OW30756   4.952   1.326   4.740  0.1820 -0.3093 -0.0397
 9772SOL    HW130757   4.935   1.254   4.801 -1.3387 -0.9748 -1.1954
 9772SOL    HW230758   5.025   1.294   4.686 -1.6556 -1.8593 -1.7656
 9773SOL     OW30759   0.338   3.396   5.521  0.3099  0.2235  0.6220
 9773SOL    HW130760   0.350   3.305   5.547  1.0120 -0.2257 -1.0916
 9773SOL    HW230761   0.370   3.447   5.595 -0.3816 -0.9108  1.7311
 9774SOL     OW30762   4.027   0.363   9.588 -0.0753  0.3736 -0.0792
 9774SOL    HW130763   3.975   0.293   9.629  3.0388 -3.0533 -1.3763
 9774SOL    HW230764   4.026   0.342   9.495  1.8890  1.3839 -0.3813
 9775SOL     OW30765   3.273   6.962   1.290  0.5012  0.1915  0.0395
 9775SOL    HW130766   3.218   7.027   1.333  0.6930  0.8478 -0.6965
 9775SOL    HW230767   3.242   6.959   1.200  1.6319  0.5390 -0.3752
 9776SOL     OW30768   5.821   2.440   1.738  1.0569 -0.3379  0.6858
 9776SOL    HW130769   5.856   2.389   1.665  0.9463  0.1402  0.2910
 9776SOL    HW230770   5.822   2.380   1.813  0.7655 -0.9753  0.1900
 9777SOL     OW30771   3.810   6.169   5.380  0.0578 -0.2130  0.8356
 9777SOL    HW130772   3.847   6.168   5.468 -1.5514 -1.5183  1.5635
 9777SOL    HW230773   3.733   6.225   5.387 -0.4010 -0.7734  0.4192
 9778SOL     OW30774   7.206   3.240   2.324  0.1556 -0.4858 -0.3375
 9778SOL    HW130775   7.160   3.156   2.313 -0.2516 -0.0115 -2.9885
 9778SOL    HW230776   7.294   3.215   2.350  0.0788 -1.8000 -1.1898
 9779SOL     OW30777   2.812   6.305  10.384 -0.1843 -0.5533 -0.0971
 9779SOL    HW130778   2.843   6.387  10.421  1.6919 -0.4918 -1.6605
 9779SOL    HW230779   2.793   6.250  10.460 -0.2279  0.8703  0.9532
 9780SOL     OW30780   7.529   6.766   6.440  0.6457 -0.2549  0.3894
 9780SOL    HW130781   7.503   6.790   6.529 -0.7482 -0.2310 -0.0030
 9780SOL    HW230782   7.488   6.680   6.426  1.0590 -0.3658 -0.1572
 9781SOL     OW30783   1.789   3.375  12.197 -0.4697  0.3932  0.1700
 9781SOL    HW130784   1.780   3.468  12.175  0.7236  0.2854 -0.8825
 9781SOL    HW230785   1.864   3.371  12.256 -1.0719  0.1882  0.9345
 9782SOL     OW30786   0.816   2.913   6.405 -0.8355  0.5637  0.5796
 9782SOL    HW130787   0.860   2.985   6.450  0.4580  0.6033 -0.6746
 9782SOL    HW230788   0.887   2.860   6.368 -1.7947  0.5403 -1.3873
 9783SOL     OW30789   2.446   4.322   0.807 -0.1107 -0.2317 -0.1095
 9783SOL    HW130790   2.463   4.357   0.895  1.0607 -1.8659  0.3796
 9783SOL    HW230791   2.462   4.395   0.748  0.2331  0.5944  0.9744
 9784SOL     OW30792   7.581   0.091  11.454  0.0863 -0.4713 -0.0267
 9784SOL    HW130793   7.600   0.069  11.363  1.6073 -1.6038  0.5231
 9784SOL    HW230794   7.571   0.007  11.498  0.0244  0.0371  0.9784
 9785SOL     OW30795   3.272   4.055  12.414 -0.5550 -0.4212  0.1679
 9785SOL    HW130796   3.340   3.999  12.451  1.1703  1.2387 -0.3420
 9785SOL    HW230797   3.278   4.137  12.465 -1.3569  0.1995 -0.6946
 9786SOL     OW30798   3.839   0.606   8.213  0.0955 -0.5081  0.7358
 9786SOL    HW130799   3.912   0.552   8.245  0.0756 -0.8908  0.1508
 9786SOL    HW230800   3.840   0.683   8.269 -0.3860 -1.4880  2.1286
 9787SOL     OW30801   1.795   3.388   3.490  0.1061 -0.5119  0.5967
 9787SOL    HW130802   1.746   3.430   3.419  0.8531  1.3543  1.1290
 9787SOL    HW230803   1.739   3.316   3.517 -1.4519  0.3731 -0.1055
 9788SOL     OW30804   0.733   2.964   2.409  0.0838 -0.0099  0.0340
 9788SOL    HW130805   0.676   2.891   2.434 -1.2369  1.3892  1.2699
 9788SOL    HW230806   0.682   3.013   2.344  1.0258 -0.2259 -0.8989
 9789SOL     OW30807   3.296   4.556   5.098  0.5239  0.0010  0.0864
 9789SOL    HW130808   3.233   4.578   5.029  1.4649  1.3130 -0.3961
 9789SOL    HW230809   3.247   4.499   5.157 -0.4277 -0.8695 -1.4574
 9790SOL     OW30810   2.677   6.655   7.099 -0.1819 -0.0171 -0.0494
 9790SOL    HW130811   2.616   6.724   7.071  1.0559  1.0450 -0.2034
 9790SOL    HW230812   2.745   6.702   7.148 -0.0426 -1.3132  1.0604
 9791SOL     OW30813   5.784   7.219  10.975  0.5713  0.0097 -0.5110
 9791SOL    HW130814   5.860   7.178  10.932  0.7451  1.4634 -1.6572
 9791SOL    HW230815   5.823   7.280  11.037  0.3290  0.2715 -0.6184
 9792SOL     OW30816   4.988   6.511   2.855  0.3047  0.0056 -0.5757
 9792SOL    HW130817   5.048   6.471   2.791 -0.7242  0.4084 -1.8488
 9792SOL    HW230818   5.014   6.603   2.857  1.2858 -0.2729  0.7373
 9793SOL     OW30819   6.938   0.033   2.616 -0.4332  0.4250  0.4654
 9793SOL    HW130820   6.859  -0.002   2.576 -1.1717  1.3756  1.0628
 9793SOL    HW230821   6.911   0.115   2.656  0.8950  0.8499  0.5420
 9794SOL     OW30822   0.799   7.170   3.165 -0.1196 -0.2355 -0.3790
 9794SOL    HW130823   0.893   7.166   3.143 -0.3702 -0.4733 -1.4436
 9794SOL    HW230824   0.782   7.087   3.211  0.2652 -0.0314  0.1437
 9795SOL     OW30825   3.126   3.514   9.039  0.1976  0.1135  0.0151
 9795SOL    HW130826   3.160   3.575   9.104  0.8803  1.2277 -1.3289
 9795SOL    HW230827   3.135   3.560   8.955 -2.2924 -0.5565 -0.7075
 9796SOL     OW30828   6.129   6.687  10.447 -0.1132  0.2224  0.4300
 9796SOL    HW130829   6.190   6.621  10.412 -3.9900 -2.5130 -1.9295
 9796SOL    HW230830   6.119   6.663  10.539  1.9213  0.4556  0.7590
 9797SOL     OW30831   3.088   2.245   8.671 -0.9920  0.2973 -0.0285
 9797SOL    HW130832   3.003   2.288   8.660 -0.6864  0.7128 -0.9068
 9797SOL    HW230833   3.070   2.152   8.659 -1.4259  0.3138  0.4514
 9798SOL     OW30834   0.756   1.587   4.287  0.2979 -0.1795  0.7564
 9798SOL    HW130835   0.821   1.547   4.346  0.1187 -1.5069  0.0982
 9798SOL    HW230836   0.799   1.666   4.254  2.6004 -2.1429 -1.4455
 9799SOL     OW30837   2.513   0.194   2.098  0.2661  0.1433  0.1701
 9799SOL    HW130838   2.536   0.105   2.124  1.7323  0.4679  0.0440
 9799SOL    HW230839   2.448   0.183   2.028 -1.3951 -0.7621  1.7614
 9800SOL     OW30840   7.954   2.559  12.234  0.0618 -0.0272  0.3685
 9800SOL    HW130841   7.896   2.533  12.306 -0.6495  0.9059  0.1586
 9800SOL    HW230842   7.930   2.501  12.162  2.5707 -2.7732  1.5635
 9801SOL     OW30843   4.618   0.152   1.354  0.0610 -0.1400  0.0431
 9801SOL    HW130844   4.567   0.233   1.363  0.0324 -0.0816 -0.5778
 9801SOL    HW230845   4.570   0.101   1.288 -0.0977 -0.8060  0.6577
 9802SOL     OW30846   1.440   1.825  10.490  0.7612 -0.5517 -0.3258
 9802SOL    HW130847   1.390   1.897  10.528  0.8956  0.3750 -1.8641
 9802SOL    HW230848   1.377   1.776  10.438  0.5273 -1.9650  1.1652
 9803SOL     OW30849   7.187   6.233   6.149  0.0089 -0.4852  0.2590
 9803SOL    HW130850   7.130   6.196   6.081 -1.1093  0.5493  0.6020
 9803SOL    HW230851   7.133   6.232   6.228 -0.1535  1.9550  0.2506
 9804SOL     OW30852   3.777   2.440  10.000 -0.0914  0.1922 -0.2003
 9804SOL    HW130853   3.745   2.492  10.074 -0.2767 -0.4689  0.2015
 9804SOL    HW230854   3.715   2.367   9.994  0.1652  0.0135 -0.7397
 9805SOL     OW30855   4.914   4.896   9.441 -0.1457  0.0817  0.3229
 9805SOL    HW130856   4.906   4.928   9.530 -6.5830 -0.7604  0.5215
 9805SOL    HW230857   4.919   4.975   9.387 -0.7350  0.8481  1.3560
 9806SOL     OW30858   5.392   0.852   1.408 -0.3069 -0.1167 -0.1920
 9806SOL    HW130859   5.364   0.904   1.484  0.8774  0.8651 -0.4161
 9806SOL    HW230860   5.348   0.893   1.334  0.4077  0.3977 -0.3335
 9807SOL     OW30861   3.459   3.560   9.785 -0.1537 -0.1492 -0.1402
 9807SOL    HW130862   3.461   3.539   9.691 -0.1132 -2.1980  0.2783
 9807SOL    HW230863   3.397   3.498   9.822 -0.0937  0.5668  1.2367
 9808SOL     OW30864   1.690   2.422   4.694 -0.0587 -0.4011 -0.0325
 9808SOL    HW130865   1.736   2.426   4.777 -1.6160  1.5247  0.8141
 9808SOL    HW230866   1.697   2.510   4.657 -2.4098 -0.2020 -0.1679
 9809SOL     OW30867   4.234   7.506   7.272  0.1275 -0.0424 -0.1463
 9809SOL    HW130868   4.310   7.449   7.284 -0.4719 -0.7363  0.4898
 9809SOL    HW230869   4.236   7.564   7.349  0.4668  0.4884 -0.5485
 9810SOL     OW30870   6.115   6.005   9.684 -0.1081 -0.0221  0.1194
 9810SOL    HW130871   6.194   6.051   9.655  0.6822 -0.4539  1.4962
 9810SOL    HW230872   6.085   5.958   9.606  1.2108 -0.1212 -0.3539
 9811SOL     OW30873   2.966   6.500   9.810  0.0508  0.1036 -0.3832
 9811SOL    HW130874   2.883   6.534   9.777  0.6256  1.4605 -0.4959
 9811SOL    HW230875   3.020   6.488   9.731 -0.3783 -1.8472 -0.4307
 9812SOL     OW30876   3.502   1.802   5.492 -0.3226 -0.0583  0.2028
 9812SOL    HW130877   3.436   1.807   5.561 -0.7948 -2.8385  0.0806
 9812SOL    HW230878   3.451   1.793   5.411  0.2292  1.5333 -0.3449
 9813SOL     OW30879   3.203   0.261   3.508  0.0423 -0.7559 -0.0956
 9813SOL    HW130880   3.199   0.171   3.475  1.9070 -1.1680  0.6907
 9813SOL    HW230881   3.196   0.252   3.603 -0.6561  0.0269 -0.0598
 9814SOL     OW30882   5.716   7.313  10.225 -0.4941  0.4374  0.2304
 9814SOL    HW130883   5.807   7.334  10.205 -0.9961  2.0708 -0.4794
 9814SOL    HW230884   5.712   7.218  10.220  1.3356  0.2623  1.0386
 9815SOL     OW30885   3.211   3.192   0.153  0.2375  0.1855  0.1202
 9815SOL    HW130886   3.286   3.208   0.097  1.2463 -0.5032  1.2411
 9815SOL    HW230887   3.241   3.213   0.241 -0.6425 -0.7627  0.6801
 9816SOL     OW30888   3.569   5.750   8.321 -0.1362 -0.4963  0.7638
 9816SOL    HW130889   3.586   5.775   8.231  1.4137 -0.2479  1.0873
 9816SOL    HW230890   3.627   5.675   8.337  0.5622  0.2420  1.8925
 9817SOL     OW30891   3.614   6.340   9.636  0.3659 -0.6533  0.0068
 9817SOL    HW130892   3.669   6.267   9.664  1.2005 -0.0428 -0.0171
 9817SOL    HW230893   3.640   6.413   9.692  1.7952  0.4906 -2.0120
 9818SOL     OW30894   4.874   6.894   0.381 -0.2277  0.0987 -0.2518
 9818SOL    HW130895   4.901   6.807   0.352  0.4213 -0.0374  0.7405
 9818SOL    HW230896   4.860   6.885   0.475  0.6589  1.2623  0.0084
 9819SOL     OW30897   7.967   5.706   0.619  0.1353  0.0044 -0.2344
 9819SOL    HW130898   7.938   5.655   0.695 -3.0159 -1.0123 -1.9170
 9819SOL    HW230899   7.978   5.641   0.549 -1.2388  1.2682 -1.7096
 9820SOL     OW30900   4.058   6.005   7.924  0.1198  0.4724  0.0097
 9820SOL    HW130901   3.987   6.059   7.889  1.0537  1.0908 -0.9698
 9820SOL    HW230902   4.019   5.917   7.929 -0.4888  0.6392 -1.2752
 9821SOL     OW30903   0.802   6.898   5.554  0.0937  0.4693  0.1861
 9821SOL    HW130904   0.758   6.956   5.491  0.4381 -0.1581 -0.6472
 9821SOL    HW230905   0.895   6.909   5.535  0.3327  1.6504  1.8243
 9822SOL     OW30906   1.315   0.174   4.604 -0.1008 -0.0902 -0.1502
 9822SOL    HW130907   1.403   0.149   4.575 -0.6869 -2.4709 -0.1030
 9822SOL    HW230908   1.329   0.222   4.685  1.1372 -1.7925  0.7186
 9823SOL     OW30909   2.332   0.930  11.109 -0.3535 -0.4498 -0.0733
 9823SOL    HW130910   2.390   1.002  11.085  0.4857 -1.1494 -0.1871
 9823SOL    HW230911   2.323   0.936  11.204  0.1139 -0.4801 -0.0251
 9824SOL     OW30912   4.159   7.207   7.709  0.3156  0.0875 -0.0516
 9824SOL    HW130913   4.211   7.168   7.779  2.8049  0.6236 -1.4841
 9824SOL    HW230914   4.114   7.133   7.668  0.8664 -0.5784  0.5254
 9825SOL     OW30915   7.617   6.145   7.396  0.0193  0.2661  0.4902
 9825SOL    HW130916   7.693   6.114   7.444 -0.7208  0.9514  2.1857
 9825SOL    HW230917   7.551   6.077   7.410  0.0983 -0.0291 -0.4598
 9826SOL     OW30918   5.758   7.122   1.573 -0.1372 -0.0185  0.6393
 9826SOL    HW130919   5.714   7.089   1.495  2.8598  1.2127 -1.7580
 9826SOL    HW230920   5.722   7.211   1.584  0.8246  0.5603 -0.6229
 9827SOL     OW30921   5.679   2.790   1.963  0.2550  0.0990  0.0197
 9827SOL    HW130922   5.625   2.712   1.980  0.5812  0.0020  0.6218
 9827SOL    HW230923   5.742   2.761   1.896  0.6500 -0.2802  0.5505
 9828SOL     OW30924   3.462   6.373   1.884 -0.0588 -0.3426  0.6678
 9828SOL    HW130925   3.521   6.311   1.842 -0.4162  0.2456 -0.7823
 9828SOL    HW230926   3.441   6.334   1.968  0.8262 -1.4978  0.3754
 9829SOL     OW30927   0.592   6.392   8.763  0.0393 -0.1113 -0.2109
 9829SOL    HW130928   0.528   6.425   8.700 -0.0606  0.7782  0.3485
 9829SOL    HW230929   0.559   6.419   8.849  1.7511  1.4315  0.0233
 9830SOL     OW30930   6.553   2.148   8.725 -0.1636  0.8304  0.8883
 9830SOL    HW130931   6.608   2.082   8.765 -0.5192 -1.2550 -1.7553
 9830SOL    HW230932   6.614   2.207   8.681  0.0909  1.3447  1.9054
 9831SOL     OW30933   6.364   5.835   8.784 -0.0850 -0.0163  0.5711
 9831SOL    HW130934   6.416   5.886   8.846 -1.1528 -0.3048  1.7447
 9831SOL    HW230935   6.293   5.894   8.758 -0.5912 -0.4590  0.9338
 9832SOL     OW30936   5.997   5.398   6.859  0.0376 -1.0119  0.6030
 9832SOL    HW130937   5.948   5.478   6.880  0.1966 -1.1211  1.4151
 9832SOL    HW230938   6.066   5.394   6.925 -0.3552 -2.1607  0.9596
 9833SOL     OW30939   4.727   6.742   5.623  0.0416  0.3407  0.2536
 9833SOL    HW130940   4.787   6.668   5.616 -0.8151 -0.5507  1.7433
 9833SOL    HW230941   4.785   6.819   5.625  0.9078 -0.1508 -2.1119
 9834SOL     OW30942   2.915   0.988   0.799 -0.1143  0.5269  0.1287
 9834SOL    HW130943   2.840   1.025   0.847  0.2890 -0.5434  1.6801
 9834SOL    HW230944   2.902   0.894   0.803  0.4192  0.3821 -1.1386
 9835SOL     OW30945   3.604   0.340   7.933  0.3140  0.4350  0.2539
 9835SOL    HW130946   3.697   0.359   7.950  0.5201 -0.8177  0.6194
 9835SOL    HW230947   3.566   0.329   8.020  0.2316 -0.8626  0.0644
 9836SOL     OW30948   1.693   4.722  11.564 -0.5164 -0.4541  0.5700
 9836SOL    HW130949   1.659   4.658  11.501 -2.1285 -1.3051  2.1926
 9836SOL    HW230950   1.762   4.675  11.611  0.7073  0.1899 -0.5511
 9837SOL     OW30951   0.781   2.244   0.191  0.3818  0.0307 -0.5618
 9837SOL    HW130952   0.860   2.193   0.211 -0.5099 -0.3027  2.7406
 9837SOL    HW230953   0.709   2.190   0.224 -0.9461  1.6745 -0.6556
 9838SOL     OW30954   1.964   7.592   8.573 -0.1226  0.7150 -0.1706
 9838SOL    HW130955   1.960   7.615   8.480 -0.6460  0.6169 -0.1743
 9838SOL    HW230956   1.891   7.532   8.586 -0.0600  0.7388  0.3082
 9839SOL     OW30957   0.889   3.947   9.930 -0.1902 -0.3452  0.2384
 9839SOL    HW130958   0.962   3.887   9.922 -0.5725 -1.1675  2.2114
 9839SOL    HW230959   0.832   3.908   9.997 -1.0493  1.6041  0.7462
 9840SOL     OW30960   2.104   3.305   9.424  0.0724  0.1902  0.2718
 9840SOL    HW130961   2.156   3.290   9.345  0.3729 -0.2157  0.5440
 9840SOL    HW230962   2.148   3.378   9.468 -1.1752  1.6837 -0.8653
 9841SOL     OW30963   4.058   1.689   1.704 -0.0238 -0.5479 -0.1805
 9841SOL    HW130964   4.127   1.657   1.763  0.9186  1.7413  0.0682
 9841SOL    HW230965   4.105   1.719   1.627 -0.7853  0.5128 -0.2511
 9842SOL     OW30966   5.340   2.911   4.221 -0.3366 -0.1688 -0.2845
 9842SOL    HW130967   5.384   2.833   4.186  1.3408  0.2992  0.6712
 9842SOL    HW230968   5.265   2.876   4.269 -0.3269 -1.0926 -0.9025
 9843SOL     OW30969   5.765   6.583   4.044 -0.1882  0.5220  0.4329
 9843SOL    HW130970   5.833   6.597   3.978 -0.0511 -0.4901  0.3407
 9843SOL    HW230971   5.771   6.659   4.101  2.0546 -0.2260  1.3129
 9844SOL     OW30972   0.406   7.193   5.240  0.4148  0.8089 -0.0378
 9844SOL    HW130973   0.380   7.283   5.260  0.0277  0.7616 -0.3084
 9844SOL    HW230974   0.352   7.140   5.298  0.2193  0.7270 -0.2953
 9845SOL     OW30975   4.491   2.992   8.613 -0.3899 -0.2598 -0.4774
 9845SOL    HW130976   4.480   3.058   8.545  0.7167  0.0024 -0.4304
 9845SOL    HW230977   4.562   2.936   8.580  2.0758  1.4269  1.5451
 9846SOL     OW30978   7.428   7.568   0.760 -0.1906 -0.3623 -0.3951
 9846SOL    HW130979   7.407   7.476   0.777  0.0046 -0.4739 -0.7484
 9846SOL    HW230980   7.523   7.571   0.765 -0.2670  0.2643  1.8321
 9847SOL     OW30981   2.236   2.192   2.117  0.3532 -0.6850  0.3677
 9847SOL    HW130982   2.234   2.242   2.199  0.2689  0.5454 -0.3576
 9847SOL    HW230983   2.326   2.203   2.085 -0.0223  0.1169 -0.4489
 9848SOL     OW30984   6.157   4.852   0.278 -0.1394 -0.1592  0.6884
 9848SOL    HW130985   6.106   4.788   0.327  1.3600 -0.7228  1.5993
 9848SOL    HW230986   6.229   4.875   0.337  0.7340  0.4931 -0.5757
 9849SOL     OW30987   1.510   3.927   7.991  0.0959  0.0437  0.2313
 9849SOL    HW130988   1.461   4.008   7.973 -2.0510 -1.3217 -0.3721
 9849SOL    HW230989   1.565   3.950   8.066 -0.9529  1.8780  0.5232
 9850SOL     OW30990   2.001   1.891   9.197  0.4597 -0.1397 -0.5016
 9850SOL    HW130991   1.906   1.878   9.194  0.7092 -2.5063 -0.0890
 9850SOL    HW230992   2.013   1.982   9.171 -1.8660  0.0224 -1.2885
 9851SOL     OW30993   4.944   4.550   5.964 -0.7787  0.9969 -0.0015
 9851SOL    HW130994   4.947   4.589   6.052 -0.8163  0.7981  0.0894
 9851SOL    HW230995   5.030   4.570   5.926  0.2547 -1.1319  1.0418
 9852SOL     OW30996   6.613   6.121   4.544 -0.3005  0.2400 -0.5531
 9852SOL    HW130997   6.589   6.033   4.575 -1.7616  1.0481  0.7188
 9852SOL    HW230998   6.630   6.109   4.450 -1.4999 -1.2047 -0.6261
 9853SOL     OW30999   5.159   3.116   3.692  0.3125 -0.1485  0.0525
 9853SOL    HW131000   5.221   3.076   3.631  0.7015  0.0491  0.3165
 9853SOL    HW231001   5.104   3.043   3.721  0.7979 -0.4370  0.2659
 9854SOL     OW31002   6.077   7.240   0.481  0.1195  0.2507 -0.1411
 9854SOL    HW131003   6.006   7.201   0.430 -0.2729  0.7415  0.0246
 9854SOL    HW231004   6.073   7.334   0.460 -0.8745  0.6680  1.7628
 9855SOL     OW31005   2.143   6.996   1.274  0.6347 -0.4669  0.4688
 9855SOL    HW131006   2.178   6.908   1.267 -0.6323 -0.9979  0.6927
 9855SOL    HW231007   2.221   7.051   1.288  1.2713 -1.8585  3.1116
 9856SOL     OW31008   2.691   0.066   4.342 -0.1854 -0.2793 -0.2375
 9856SOL    HW131009   2.771   0.094   4.386 -0.0012  2.2588 -1.9694
 9856SOL    HW231010   2.717  -0.011   4.292  1.1912  0.4696 -0.7286
 9857SOL     OW31011   4.607   1.685   1.985 -0.3603  0.0712  0.4620
 9857SOL    HW131012   4.627   1.605   2.034 -1.0054 -0.5363 -0.2449
 9857SOL    HW231013   4.567   1.743   2.050  0.1785 -0.1369  0.9967
 9858SOL     OW31014   3.171   0.593  12.294  0.8119 -0.1567  0.1097
 9858SOL    HW131015   3.102   0.563  12.352 -1.0671 -0.6669 -2.2234
 9858SOL    HW231016   3.232   0.520  12.289  0.0803 -0.7804  0.0993
 9859SOL     OW31017   4.878   3.830  10.743 -0.2720  0.2512  0.0886
 9859SOL    HW131018   4.867   3.798  10.833 -1.0155  3.0596  1.0839
 9859SOL    HW231019   4.789   3.849  10.713  0.0236 -0.0860 -1.0524
 9860SOL     OW31020   1.380   6.835   6.443 -0.0585 -0.0576  0.4309
 9860SOL    HW131021   1.413   6.747   6.457  0.7761  0.1840  0.0805
 9860SOL    HW231022   1.426   6.888   6.508  1.8344  0.6233 -1.3478
 9861SOL     OW31023   0.828   6.034   0.020 -0.0468 -0.3038 -0.7084
 9861SOL    HW131024   0.755   6.088  -0.010 -0.7697 -1.2322 -0.6636
 9861SOL    HW231025   0.858   6.076   0.100 -0.6936 -0.0480 -0.5957
 9862SOL     OW31026   5.874   6.383  12.113 -0.1641 -0.6198  0.6847
 9862SOL    HW131027   5.900   6.451  12.175  0.8379  0.0565 -0.4271
 9862SOL    HW231028   5.895   6.419  12.027 -1.3827 -1.5894 -0.0615
 9863SOL     OW31029   3.874   4.645  11.580 -0.1749  0.5881 -0.0760
 9863SOL    HW131030   3.821   4.718  11.610 -0.9029 -0.0268  0.1641
 9863SOL    HW231031   3.962   4.664  11.613 -0.5835  0.8241  0.9051
 9864SOL     OW31032   3.394   6.053   0.294  0.3999  0.0026  0.2204
 9864SOL    HW131033   3.326   6.012   0.348  0.6595  0.4994  0.9444
 9864SOL    HW231034   3.445   6.106   0.356  1.6243 -0.5781 -0.2562
 9865SOL     OW31035   1.462   1.058  10.666 -0.0019 -0.4108 -0.4216
 9865SOL    HW131036   1.490   0.986  10.723  1.0621  0.0611 -0.3227
 9865SOL    HW231037   1.368   1.046  10.657 -0.3149 -0.1940  1.9017
 9866SOL     OW31038   3.483   6.239  10.146 -0.5335 -0.1072  0.0217
 9866SOL    HW131039   3.421   6.275  10.083  0.6429 -1.8734 -2.3006
 9866SOL    HW231040   3.549   6.308  10.157 -1.3488  0.6492  0.2166
 9867SOL     OW31041   2.138   5.516   7.516  0.2874 -0.2913 -0.4539
 9867SOL    HW131042   2.107   5.512   7.607  1.0503  1.9509 -0.0244
 9867SOL    HW231043   2.229   5.486   7.521  0.4267  0.1292 -0.4035
 9868SOL     OW31044   7.871   0.407   4.288  0.1797 -0.1616 -0.0790
 9868SOL    HW131045   7.929   0.399   4.212  0.1549 -1.1284 -0.0080
 9868SOL    HW231046   7.791   0.361   4.263 -0.1901  0.3227  0.1902
 9869SOL     OW31047   2.862   2.856   4.075  0.3372  0.8425 -0.4940
 9869SOL    HW131048   2.940   2.907   4.054  3.7465 -3.5122 -0.0693
 9869SOL    HW231049   2.842   2.809   3.995 -1.2826  1.1858 -0.3070
 9870SOL     OW31050   6.822   5.977   9.881  0.2157 -0.3352  0.1476
 9870SOL    HW131051   6.828   5.898   9.828  1.0635  0.5422 -1.1402
 9870SOL    HW231052   6.858   6.046   9.824 -0.6735  1.0021  1.1566
 9871SOL     OW31053   3.147   7.716   2.036 -0.5661  0.1635  0.1836
 9871SOL    HW131054   3.088   7.702   2.110 -2.9517 -0.6272 -1.7680
 9871SOL    HW231055   3.162   7.810   2.034 -1.4178  0.3280  0.9790
 9872SOL     OW31056   1.519   3.618   7.892  0.3132 -0.1992  0.1662
 9872SOL    HW131057   1.613   3.612   7.874  0.4781 -0.2866  1.0283
 9872SOL    HW231058   1.492   3.701   7.854  0.4259 -0.8423 -1.4097
 9873SOL     OW31059   3.991   0.095   6.775  0.0752 -0.4341  0.2577
 9873SOL    HW131060   4.040   0.013   6.771  0.4129 -0.2073 -0.5671
 9873SOL    HW231061   3.910   0.077   6.727 -0.7687 -0.8622  1.7682
 9874SOL     OW31062   2.563   3.184   0.355 -0.2181 -0.1082  0.4681
 9874SOL    HW131063   2.569   3.118   0.286 -0.9062 -0.9511  1.1745
 9874SOL    HW231064   2.590   3.137   0.434  0.5340  0.8304  0.7854
 9875SOL     OW31065   5.218   3.682   4.897  0.4249 -0.2941  0.1697
 9875SOL    HW131066   5.226   3.773   4.869 -0.4908 -0.4351 -0.6241
 9875SOL    HW231067   5.228   3.631   4.816 -1.0142 -0.7838  0.2694
 9876SOL     OW31068   0.913   5.494   7.147  0.4091 -0.7411  0.4251
 9876SOL    HW131069   0.845   5.544   7.191 -0.3188 -1.6124  0.3237
 9876SOL    HW231070   0.893   5.503   7.054  0.4283 -0.9948  0.3951
 9877SOL     OW31071   5.334   0.923   2.341 -0.1108  0.3932 -0.2091
 9877SOL    HW131072   5.275   0.861   2.383  0.1858 -1.1055 -1.8691
 9877SOL    HW231073   5.307   1.008   2.375 -1.1760 -0.5349  1.4139
 9878SOL     OW31074   7.463   7.197  12.294 -0.4393 -0.2406 -0.3378
 9878SOL    HW131075   7.484   7.197  12.387 -1.3769 -0.7387 -0.1182
 9878SOL    HW231076   7.504   7.118  12.260 -0.3776 -0.2300 -0.2882
 9879SOL     OW31077   7.546   1.113  10.199 -0.6025  0.2061 -0.6968
 9879SOL    HW131078   7.477   1.123  10.133  1.3989  0.9223 -2.8036
 9879SOL    HW231079   7.606   1.186  10.183 -0.4760  1.0120  2.5985
 9880SOL     OW31080   6.399   0.389   9.695 -0.1067 -0.1575  0.2365
 9880SOL    HW131081   6.377   0.393   9.788  0.1272 -1.6707  0.3790
 9880SOL    HW231082   6.471   0.451   9.684  2.0793 -2.2401  1.7588
 9881SOL     OW31083   7.679   6.942   4.989  0.6113  0.0231  0.1017
 9881SOL    HW131084   7.732   7.021   4.991 -1.6431  1.5987  1.4105
 9881SOL    HW231085   7.595   6.970   4.953 -0.2952 -1.7575  0.7071
 9882SOL     OW31086   7.763   3.913   2.315 -0.2006 -0.0216  0.0176
 9882SOL    HW131087   7.735   3.957   2.234 -1.7092  0.2081  0.6279
 9882SOL    HW231088   7.685   3.865   2.344  0.5326 -0.6633  0.9687
 9883SOL     OW31089   2.057   7.144   9.654 -0.0978 -0.1342  0.8036
 9883SOL    HW131090   2.060   7.074   9.719  0.8265 -0.4028  0.4889
 9883SOL    HW231091   2.143   7.187   9.662  0.1312 -0.3410 -0.4140
 9884SOL     OW31092   7.327   4.977  11.077 -0.4946  0.3883  0.5024
 9884SOL    HW131093   7.302   4.888  11.053 -1.5610  0.4910  1.1721
 9884SOL    HW231094   7.313   4.981  11.172  0.7421  0.8969  0.6846
 9885SOL     OW31095   0.447   6.436   4.292  0.1438 -0.6965 -0.3723
 9885SOL    HW131096   0.537   6.429   4.261 -0.1285  0.4317 -1.4986
 9885SOL    HW231097   0.455   6.453   4.385  1.3693  4.1591 -1.1117
 9886SOL     OW31098   5.865   3.861   3.644 -0.4165 -0.1864 -0.3176
 9886SOL    HW131099   5.837   3.776   3.611 -0.6142  0.1288 -0.9856
 9886SOL    HW231100   5.879   3.914   3.565 -0.3769  0.4232  0.0893
 9887SOL     OW31101   4.815   4.694  10.964 -0.7117  0.3033 -0.1262
 9887SOL    HW131102   4.756   4.692  11.040  0.1562 -0.4296  0.5589
 9887SOL    HW231103   4.773   4.755  10.903 -3.0076 -1.3491 -0.3574
 9888SOL     OW31104   7.587   5.458   6.328  0.0102  0.6541 -0.0301
 9888SOL    HW131105   7.665   5.452   6.273 -0.1856  0.4115 -0.2830
 9888SOL    HW231106   7.598   5.540   6.377  1.0886 -0.0590  0.9655
 9889SOL     OW31107   4.686   2.991   9.522 -0.3597  0.2652 -0.0864
 9889SOL    HW131108   4.642   3.072   9.498 -0.9271 -0.0658 -0.1857
 9889SOL    HW231109   4.625   2.922   9.496  0.7567 -0.2706 -1.4054
 9890SOL     OW31110   4.203   0.479  10.332 -0.0270  0.5446  0.0356
 9890SOL    HW131111   4.242   0.405  10.378  1.2979  1.2129  0.0502
 9890SOL    HW231112   4.251   0.556  10.365  0.0283  1.1792 -1.4238
 9891SOL     OW31113   1.239   4.737   4.113 -0.6115  0.3063 -0.4463
 9891SOL    HW131114   1.234   4.691   4.197  1.0506  1.0715  0.1061
 9891SOL    HW231115   1.256   4.828   4.136  0.4970  0.4255 -1.6065
 9892SOL     OW31116   3.243   2.846  11.330  0.2177  0.2016 -0.2708
 9892SOL    HW131117   3.164   2.799  11.357  0.6553 -0.4875 -0.1650
 9892SOL    HW231118   3.241   2.927  11.381 -1.6135  1.3132 -1.9607
 9893SOL     OW31119   0.415   7.246  10.380 -0.3780  0.5344 -0.0980
 9893SOL    HW131120   0.437   7.159  10.345 -0.9790  0.5887 -0.6333
 9893SOL    HW231121   0.494   7.298  10.366 -0.4318  0.4106 -0.9210
 9894SOL     OW31122   1.044   0.454  10.629  0.4932  0.1140 -0.4514
 9894SOL    HW131123   1.080   0.417  10.549  1.7480  0.8059 -0.2402
 9894SOL    HW231124   1.007   0.538  10.602  2.5619  1.2305 -0.0694
 9895SOL     OW31125   7.136   1.909   0.523 -0.0314  0.0086 -0.2716
 9895SOL    HW131126   7.131   1.928   0.429  0.7327  0.1541 -0.2878
 9895SOL    HW231127   7.225   1.933   0.547 -0.4251  0.5936  0.6306
 9896SOL     OW31128   2.149   3.151  10.577 -0.5384 -0.2653  0.3027
 9896SOL    HW131129   2.118   3.061  10.570 -0.5462 -0.3235  1.0620
 9896SOL    HW231130   2.152   3.169  10.671  1.7897 -0.2792  0.2959
 9897SOL     OW31131   7.896   7.061   4.495 -0.6707  0.1326  0.1106
 9897SOL    HW131132   7.907   7.156   4.503  0.3647  0.0704 -0.4184
 9897SOL    HW231133   7.826   7.050   4.431 -2.3773  0.5366  1.8091
 9898SOL     OW31134   7.587   0.305   0.937 -0.0042 -0.7387 -0.1317
 9898SOL    HW131135   7.670   0.341   0.968  0.5295 -1.6753 -0.4337
 9898SOL    HW231136   7.593   0.211   0.956 -0.1831 -1.1357 -1.8896
 9899SOL     OW31137   7.668   3.147   4.786 -0.1487  0.4780 -0.0542
 9899SOL    HW131138   7.681   3.237   4.755  0.6167  0.5844  0.5600
 9899SOL    HW231139   7.729   3.137   4.859 -1.3707 -0.0269  0.9400
 9900SOL     OW31140   0.817   0.715   5.651  0.3973  0.2475  0.5130
 9900SOL    HW131141   0.801   0.799   5.608  3.7659  0.9102  0.2442
 9900SOL    HW231142   0.826   0.737   5.744  1.1100  0.1733  0.4659
 9901SOL     OW31143   0.144   3.016   2.941 -0.3059  0.4092 -0.4895
 9901SOL    HW131144   0.054   2.998   2.914  0.1250 -1.7122 -0.6867
 9901SOL    HW231145   0.137   3.037   3.034 -1.2176  2.5677 -0.9848
 9902SOL     OW31146   4.589   6.986   0.455  0.3759  0.2018  0.2456
 9902SOL    HW131147   4.561   6.901   0.419 -1.1728  0.5998  0.4331
 9902SOL    HW231148   4.600   7.042   0.378  0.9913 -0.0439  0.1489
 9903SOL     OW31149   5.465   0.736   4.646 -0.7440 -0.3715  0.6166
 9903SOL    HW131150   5.409   0.814   4.647 -0.1106  0.1141 -0.1148
 9903SOL    HW231151   5.423   0.677   4.584 -0.3893  0.0526 -0.0449
 9904SOL     OW31152   1.214   2.693   0.916  0.2362  0.2918 -0.1235
 9904SOL    HW131153   1.137   2.673   0.969  1.8180 -1.2914  1.7191
 9904SOL    HW231154   1.250   2.773   0.955 -0.1041  0.6660 -0.5703
 9905SOL     OW31155   6.120   0.310   7.246  0.3370  0.1583  0.0155
 9905SOL    HW131156   6.180   0.363   7.193 -0.2300  2.0996  1.2029
 9905SOL    HW231157   6.117   0.225   7.201  1.0031  1.2269 -2.2098
 9906SOL     OW31158   7.385   3.761   3.279  0.0506  0.1280  0.3809
 9906SOL    HW131159   7.405   3.849   3.312 -2.3205  0.2363  1.6890
 9906SOL    HW231160   7.298   3.769   3.240  0.2086 -1.4566 -0.3745
 9907SOL     OW31161   6.016   2.591   5.292  0.4492  0.0799  0.7811
 9907SOL    HW131162   5.969   2.666   5.329  1.5233  1.6344 -0.8768
 9907SOL    HW231163   6.107   2.604   5.318  0.9678  0.4083 -1.0486
 9908SOL     OW31164   1.473   0.902   6.216 -0.4135 -0.2453  0.5701
 9908SOL    HW131165   1.461   0.957   6.294  0.3149 -0.0588  0.5612
 9908SOL    HW231166   1.433   0.952   6.145  1.2489  0.8413  0.3498
 9909SOL     OW31167   7.722   2.273   4.791 -0.3091  0.1368 -0.0974
 9909SOL    HW131168   7.785   2.205   4.818  1.2559  0.7662 -1.9752
 9909SOL    HW231169   7.672   2.232   4.720  0.2190  0.7315 -0.8159
 9910SOL     OW31170   7.162   1.601   8.733 -0.3484 -0.4662 -0.1230
 9910SOL    HW131171   7.222   1.527   8.719 -0.1861 -0.2723 -0.4448
 9910SOL    HW231172   7.151   1.603   8.828  1.5056  0.5475  0.1214
 9911SOL     OW31173   6.868   6.177   9.165  0.2087 -0.7779  0.6892
 9911SOL    HW131174   6.799   6.126   9.122  1.2832 -0.7440 -1.1460
 9911SOL    HW231175   6.918   6.215   9.094  1.3461  0.2933  2.0052
 9912SOL     OW31176   7.849   7.089   8.128 -0.4342  0.0351 -0.3128
 9912SOL    HW131177   7.851   7.022   8.196 -0.4117  2.0415  1.7787
 9912SOL    HW231178   7.773   7.066   8.074 -0.4534 -1.6149  0.3591
 9913SOL     OW31179   1.502   5.879   0.186 -0.3688  0.5289  0.2745
 9913SOL    HW131180   1.535   5.816   0.249 -1.4104  1.2366  1.5985
 9913SOL    HW231181   1.567   5.880   0.116  1.0638  0.0284  1.5365
 9914SOL     OW31182   7.311   0.813  11.758 -0.1129  0.2985  0.1510
 9914SOL    HW131183   7.285   0.902  11.732 -1.1044 -0.1286 -0.3980
 9914SOL    HW231184   7.265   0.797  11.840 -1.1142 -0.2163 -0.4849
 9915SOL     OW31185   7.546   6.074   1.753  0.4155  0.3778 -0.5663
 9915SOL    HW131186   7.590   5.992   1.729  0.2613  0.4369 -1.0521
 9915SOL    HW231187   7.455   6.048   1.770  0.6457  0.2354  0.5548
 9916SOL     OW31188   1.721   5.304   6.169 -0.2786 -0.0425  0.0499
 9916SOL    HW131189   1.686   5.304   6.080 -2.1014 -1.1578  0.7145
 9916SOL    HW231190   1.713   5.212   6.197  1.2286  0.0973  1.0103
 9917SOL     OW31191   6.957   3.478   5.307  0.2213 -0.0366  0.3753
 9917SOL    HW131192   6.868   3.461   5.338 -0.3019  2.3229  0.3495
 9917SOL    HW231193   6.951   3.561   5.262  2.4399  0.1087  0.2456
 9918SOL     OW31194   3.568   4.176  10.868  0.6119  0.0230  0.0080
 9918SOL    HW131195   3.538   4.171  10.777  0.4020 -0.0354  0.0778
 9918SOL    HW231196   3.513   4.243  10.907  0.1011 -0.5632  0.3134
 9919SOL     OW31197   7.119   1.524   9.262 -0.1980 -0.4368 -0.5838
 9919SOL    HW131198   7.080   1.609   9.280 -1.1625 -0.7843 -1.0038
 9919SOL    HW231199   7.045   1.464   9.254  0.4599 -1.2913 -0.4456
 9920SOL     OW31200   0.146   5.841   1.347  0.2298  0.0648 -0.4702
 9920SOL    HW131201   0.103   5.845   1.433  1.7332 -1.1118  0.3797
 9920SOL    HW231202   0.122   5.923   1.304  0.0542  1.0217  1.3651
 9921SOL     OW31203   0.082   4.120   0.688 -0.0718 -0.1173  0.3082
 9921SOL    HW131204   0.033   4.060   0.632  0.7495 -0.5946  0.0929
 9921SOL    HW231205   0.094   4.199   0.636 -0.9095  0.1377  0.4896
 9922SOL     OW31206   2.408   4.922   6.372  0.2879 -0.3237  0.0966
 9922SOL    HW131207   2.319   4.920   6.336  0.3081 -2.3508  0.0338
 9922SOL    HW231208   2.406   4.992   6.437 -0.1759  2.4386 -2.6581
 9923SOL     OW31209   6.272   7.322   6.322 -0.2492  0.3312  0.1170
 9923SOL    HW131210   6.227   7.393   6.366 -1.0938 -0.2710  0.2550
 9923SOL    HW231211   6.203   7.273   6.277  0.2064 -0.7732  0.5607
 9924SOL     OW31212   0.246   5.365   7.029  0.3641  0.0954 -0.0206
 9924SOL    HW131213   0.218   5.316   7.106  0.3912  0.0196 -0.0582
 9924SOL    HW231214   0.233   5.457   7.052 -1.0604  0.0267 -0.4791
 9925SOL     OW31215   6.434   6.520   0.715  0.3027 -0.3543  0.2377
 9925SOL    HW131216   6.373   6.584   0.677 -0.6883 -1.1486  0.4409
 9925SOL    HW231217   6.520   6.550   0.687 -0.3678 -1.1530 -3.1043
 9926SOL     OW31218   7.311   1.784  10.696  0.2901 -0.5876  0.2976
 9926SOL    HW131219   7.335   1.815  10.609  0.0435  0.6089  0.6393
 9926SOL    HW231220   7.285   1.693  10.683 -1.7242  0.1372 -1.2405
 9927SOL     OW31221   5.749   4.936   3.670  0.6804 -0.2228 -0.3855
 9927SOL    HW131222   5.746   4.841   3.686  1.1488  0.0354  1.4846
 9927SOL    HW231223   5.843   4.954   3.658  0.6911  0.1144  0.1695
 9928SOL     OW31224   2.414   2.767   7.488 -0.4655 -0.2530 -0.5626
 9928SOL    HW131225   2.385   2.854   7.461 -1.2588  0.0261  1.0610
 9928SOL    HW231226   2.337   2.712   7.479 -0.7907 -0.1263  1.1396
 9929SOL     OW31227   0.573   4.750   9.180 -0.2627  0.0417  0.5483
 9929SOL    HW131228   0.516   4.721   9.252 -1.3228 -2.3223 -1.1268
 9929SOL    HW231229   0.634   4.677   9.168  0.4881  0.7995 -0.3533
 9930SOL     OW31230   2.914   7.092  11.595 -0.1976 -0.1176  0.3866
 9930SOL    HW131231   2.910   7.033  11.670 -0.6050 -1.4671 -0.6519
 9930SOL    HW231232   3.008   7.109  11.584 -0.2331  1.8513  2.4637
 9931SOL     OW31233   1.926   5.797   0.041  0.2319 -0.4182  0.2280
 9931SOL    HW131234   1.892   5.812   0.130  0.0153 -0.1203  0.0972
 9931SOL    HW231235   1.849   5.782  -0.012  0.1716  1.5353 -0.3162
 9932SOL     OW31236   6.988   4.219   2.685  0.6491 -0.2950 -0.3265
 9932SOL    HW131237   6.957   4.259   2.766  0.9323  1.1528 -0.8851
 9932SOL    HW231238   6.982   4.125   2.699  1.9914 -0.1157  1.8814
 9933SOL     OW31239   3.905   6.901  11.124  0.6788  0.8078 -0.1679
 9933SOL    HW131240   3.973   6.896  11.191  1.0983 -0.0573 -0.6313
 9933SOL    HW231241   3.930   6.834  11.060 -1.6964 -0.9847  0.6510
 9934SOL     OW31242   1.641   4.147  12.187 -0.2675 -0.0343  0.4630
 9934SOL    HW131243   1.731   4.177  12.201  0.6053 -1.5986 -1.3673
 9934SOL    HW231244   1.607   4.204  12.118 -0.6877  0.5021  1.0967
 9935SOL     OW31245   0.704   4.443   9.407 -0.0704 -0.2358  0.1654
 9935SOL    HW131246   0.733   4.352   9.412  3.0018  0.6378  0.6556
 9935SOL    HW231247   0.609   4.439   9.416  0.1624 -3.1658  3.8777
 9936SOL     OW31248   7.325   2.159  11.234  0.3531 -0.3628 -0.0489
 9936SOL    HW131249   7.317   2.065  11.249  0.6283 -0.5699 -1.1222
 9936SOL    HW231250   7.391   2.166  11.165  0.7458  0.6491  0.4239
 9937SOL     OW31251   5.519   3.257   1.072 -0.3145 -0.1525  0.1016
 9937SOL    HW131252   5.494   3.211   0.992 -0.6432  1.8152 -0.9982
 9937SOL    HW231253   5.489   3.200   1.143  0.5408 -2.2706 -1.1205
 9938SOL     OW31254   0.290   0.448   2.090  0.1733  0.0553  0.5716
 9938SOL    HW131255   0.242   0.366   2.103  0.1624  0.1655  1.2541
 9938SOL    HW231256   0.222   0.515   2.081  0.1938  0.0850  0.6432
 9939SOL     OW31257   3.849   1.302   0.639  0.6234  0.3439  0.4086
 9939SOL    HW131258   3.797   1.360   0.585  0.4056  0.1156  0.3714
 9939SOL    HW231259   3.810   1.215   0.626  0.7808  0.2325  0.6649
 9940SOL     OW31260   0.720   7.653  11.163  0.3442 -0.2587 -0.0704
 9940SOL    HW131261   0.704   7.645  11.257  0.2346  1.1940  0.0613
 9940SOL    HW231262   0.716   7.563  11.130 -0.7710 -0.6841  1.1271
 9941SOL     OW31263   1.096   0.502   6.571  0.4245 -0.5434 -0.1838
 9941SOL    HW131264   1.113   0.583   6.618 -3.6825  0.6825 -0.3864
 9941SOL    HW231265   1.099   0.434   6.638  1.8867  0.0474  0.3781
 9942SOL     OW31266   6.129   5.380   6.279 -0.6694  0.2518 -0.6545
 9942SOL    HW131267   6.172   5.294   6.278  0.1003  0.5991  0.3505
 9942SOL    HW231268   6.038   5.362   6.255 -1.0224 -1.1386  1.4533
 9943SOL     OW31269   1.713   5.473   6.888  0.3809  0.3994  0.0277
 9943SOL    HW131270   1.784   5.441   6.832  1.9685  0.9327  1.6288
 9943SOL    HW231271   1.648   5.508   6.827  1.7919  0.5140 -1.4891
 9944SOL     OW31272   7.713   5.200   6.496 -0.0643  0.0951  0.2226
 9944SOL    HW131273   7.807   5.218   6.496 -0.0428 -0.0051 -0.2609
 9944SOL    HW231274   7.673   5.282   6.525  0.2038 -0.0483  1.0155
 9945SOL     OW31275   1.596   4.726   2.827 -0.1514  0.1463  0.1636
 9945SOL    HW131276   1.640   4.683   2.754 -1.4144 -0.3413 -0.3283
 9945SOL    HW231277   1.509   4.686   2.831 -1.4527  2.6623 -0.3796
 9946SOL     OW31278   7.782   3.187   2.548  0.0429 -0.0566  0.5141
 9946SOL    HW131279   7.716   3.121   2.528 -0.3949  0.7156 -0.6513
 9946SOL    HW231280   7.851   3.173   2.483  0.2774  0.1802  0.7082
 9947SOL     OW31281   6.694   3.209  11.524  0.4237 -0.5928  0.1859
 9947SOL    HW131282   6.682   3.115  11.508 -0.1007 -0.6188  0.7022
 9947SOL    HW231283   6.620   3.233  11.579  0.0855  0.3092 -0.6447
 9948SOL     OW31284   0.939   7.783   8.256 -0.0668  0.1658  0.2373
 9948SOL    HW131285   1.009   7.747   8.311 -0.0645  1.4106  1.1052
 9948SOL    HW231286   0.985   7.822   8.182  0.0060 -0.6026 -0.1353
 9949SOL     OW31287   5.604   0.330   0.486 -0.0367  0.6571  0.5287
 9949SOL    HW131288   5.651   0.258   0.443  3.1135 -0.1076  4.5732
 9949SOL    HW231289   5.643   0.409   0.449  0.2991  0.1357 -0.2693
 9950SOL     OW31290   2.964   4.609   6.651  0.5048  0.5800  0.2656
 9950SOL    HW131291   2.953   4.696   6.614  0.5193  0.9054  1.0041
 9950SOL    HW231292   2.879   4.566   6.639  0.9750  0.1013 -1.5673
 9951SOL     OW31293   7.650   1.849   0.099 -0.4213  0.1166 -0.2261
 9951SOL    HW131294   7.656   1.924   0.039  3.7236  1.1748  1.2059
 9951SOL    HW231295   7.618   1.886   0.181 -0.8710 -0.2554 -0.2253
 9952SOL     OW31296   3.904   0.267   7.744 -0.4960  0.1215 -0.2112
 9952SOL    HW131297   3.912   0.306   7.831 -0.8048  0.4545 -0.3298
 9952SOL    HW231298   3.992   0.234   7.724 -0.5188 -0.3327  0.4023
 9953SOL     OW31299   5.944   7.005   1.978  0.1065  0.4194 -0.1891
 9953SOL    HW131300   5.868   7.051   1.944  0.5619  0.8807 -0.6094
 9953SOL    HW231301   5.910   6.921   2.009 -0.3913  0.0968 -1.5241
 9954SOL     OW31302   5.361   6.441   7.637  0.5404 -0.8166  0.3976
 9954SOL    HW131303   5.363   6.516   7.579  1.3706 -0.9779  0.1952
 9954SOL    HW231304   5.278   6.448   7.684 -0.0625 -0.5992 -0.6849
 9955SOL     OW31305   0.795   6.703   8.297 -0.5099  0.0103 -0.0264
 9955SOL    HW131306   0.865   6.646   8.267  0.4566  0.8683  0.5347
 9955SOL    HW231307   0.780   6.678   8.388  1.0726  1.6813  0.7643
 9956SOL     OW31308   5.085   7.484   1.774 -0.0681 -0.0242  0.2656
 9956SOL    HW131309   5.010   7.466   1.831 -0.1045  1.7177  0.8158
 9956SOL    HW231310   5.149   7.418   1.799 -1.7121 -2.2103 -0.9034
 9957SOL     OW31311   6.906   0.202   9.028  0.7378 -0.4129 -0.0876
 9957SOL    HW131312   6.901   0.294   9.053 -0.7438 -0.5065  0.0214
 9957SOL    HW231313   6.931   0.204   8.935 -1.7936  0.2344 -0.8295
 9958SOL     OW31314   7.216   7.185   4.095  0.1303 -0.1207  0.6457
 9958SOL    HW131315   7.247   7.223   4.014  1.3434 -1.6868  0.3390
 9958SOL    HW231316   7.130   7.149   4.073  0.4093 -0.4494  0.0647
 9959SOL     OW31317   2.856   7.099   1.548  0.2509 -0.2417 -0.2732
 9959SOL    HW131318   2.816   7.161   1.486  0.0842 -1.3161 -1.2717
 9959SOL    HW231319   2.949   7.098   1.525 -0.0397 -1.7170 -1.4958
 9960SOL     OW31320   0.953   2.709   2.661  0.1051  0.2621 -0.5669
 9960SOL    HW131321   0.895   2.633   2.662 -0.3042  0.5477  1.5221
 9960SOL    HW231322   0.992   2.709   2.573 -0.7523 -1.6800 -0.9849
 9961SOL     OW31323   3.835   7.455   0.010 -0.2940  0.4903  0.0841
 9961SOL    HW131324   3.917   7.490  -0.025 -0.6153  0.7962 -0.3727
 9961SOL    HW231325   3.773   7.461  -0.063 -0.7994  0.5249  0.5086
 9962SOL     OW31326   3.862   2.297   6.698 -0.2129  0.2468  0.0001
 9962SOL    HW131327   3.792   2.283   6.762  0.2064  0.8324  0.6084
 9962SOL    HW231328   3.925   2.227   6.717 -1.0994 -0.9449 -1.2560
 9963SOL     OW31329   7.140   1.559   8.048 -0.1051 -0.1323  0.7272
 9963SOL    HW131330   7.201   1.560   7.974 -0.2228 -1.2662  0.5991
 9963SOL    HW231331   7.149   1.472   8.086 -3.6734 -1.4261 -0.9990
 9964SOL     OW31332   5.374   0.361   4.803 -0.1312  0.3138  0.0436
 9964SOL    HW131333   5.376   0.350   4.898  0.3991  0.7573  0.0839
 9964SOL    HW231334   5.438   0.429   4.784  1.1597 -1.0633 -0.8105
 9965SOL     OW31335   1.743   2.850   7.612 -0.3352 -0.2816 -0.5053
 9965SOL    HW131336   1.811   2.916   7.622 -0.3933 -0.2612 -0.2355
 9965SOL    HW231337   1.708   2.864   7.524 -0.4003  0.0992 -0.4194
 9966SOL     OW31338   4.279   1.879   1.830 -0.0870 -0.0114 -0.0547
 9966SOL    HW131339   4.362   1.833   1.822 -0.0824  0.2833 -2.4033
 9966SOL    HW231340   4.302   1.970   1.848  0.4421  0.9170 -4.3574
 9967SOL     OW31341   1.774   3.726   1.131 -0.2669 -0.0979  0.2200
 9967SOL    HW131342   1.765   3.791   1.061 -0.0510 -0.0428  0.2420
 9967SOL    HW231343   1.868   3.720   1.146 -0.3587  0.7105  1.2587
 9968SOL     OW31344   7.770   4.654   5.391 -0.1976 -0.8765  0.5248
 9968SOL    HW131345   7.815   4.586   5.442  1.5391 -0.3250 -0.1848
 9968SOL    HW231346   7.790   4.736   5.438 -0.1528 -0.5803  0.0005
 9969SOL     OW31347   5.898   3.920   0.639  0.0155  0.2894 -0.1566
 9969SOL    HW131348   5.990   3.913   0.665  0.0319  0.5417 -0.1433
 9969SOL    HW231349   5.849   3.882   0.711  0.0336  1.3837  0.4565
 9970SOL     OW31350   0.952   3.616  10.279 -0.7538  0.2422 -0.0107
 9970SOL    HW131351   0.973   3.686  10.217 -0.7306  0.2580  0.0158
 9970SOL    HW231352   0.856   3.610  10.275 -0.6444 -1.0873 -1.5060
 9971SOL     OW31353   2.191   0.495   7.464  0.1687  0.3941  0.4524
 9971SOL    HW131354   2.224   0.497   7.554  0.6075  0.7057  0.2910
 9971SOL    HW231355   2.097   0.479   7.473  0.1128  0.9862  0.9923
 9972SOL     OW31356   4.674   5.465   5.564  0.2994 -0.0441 -0.2245
 9972SOL    HW131357   4.693   5.393   5.503  1.7862  1.5879 -1.7956
 9972SOL    HW231358   4.728   5.537   5.533 -1.6742  2.0079  0.8570
 9973SOL     OW31359   5.583   2.580   1.695  0.1656 -0.1128 -0.2534
 9973SOL    HW131360   5.668   2.546   1.723  0.4527  0.1020 -0.8379
 9973SOL    HW231361   5.524   2.558   1.766  0.8987  0.5863  0.5995
 9974SOL     OW31362   6.800   4.581  11.484 -0.2092  0.9973  0.2404
 9974SOL    HW131363   6.784   4.676  11.477  1.3808  1.3752  1.2586
 9974SOL    HW231364   6.827   4.568  11.574 -0.7028 -0.5065  0.1992
 9975SOL     OW31365   4.704   6.078  11.061  0.8058  0.7155  0.1946
 9975SOL    HW131366   4.700   6.029  11.144 -0.1480 -0.0874 -0.3062
 9975SOL    HW231367   4.778   6.040  11.014 -0.1156 -0.4922 -0.3208
 9976SOL     OW31368   4.277   4.101   5.430  0.6027 -0.6476 -0.0844
 9976SOL    HW131369   4.343   4.086   5.361 -0.7939 -1.0672 -1.3867
 9976SOL    HW231370   4.285   4.025   5.487  1.2057 -0.7247 -0.2622
 9977SOL     OW31371   1.358   0.572  11.001  0.0453 -0.3396  0.3725
 9977SOL    HW131372   1.293   0.623  11.050  1.0348  1.3868 -0.0055
 9977SOL    HW231373   1.431   0.633  10.990  1.6124 -2.1184  0.5278
 9978SOL     OW31374   4.773   6.869   4.348  0.5139 -0.3190 -0.0849
 9978SOL    HW131375   4.823   6.948   4.328  0.6007  0.1655  1.7916
 9978SOL    HW231376   4.839   6.801   4.358  0.4643 -0.5686 -1.4014
 9979SOL     OW31377   3.129   6.852   5.579  0.4931 -0.0569 -0.1048
 9979SOL    HW131378   3.201   6.880   5.523  1.4659  0.0649  1.1677
 9979SOL    HW231379   3.110   6.762   5.551  0.8643  0.0513 -0.7232
 9980SOL     OW31380   5.985   7.376  10.384  0.3793 -0.3112  0.2675
 9980SOL    HW131381   6.071   7.338  10.406  0.1736 -0.3449  1.0362
 9980SOL    HW231382   6.006   7.463  10.352  0.6958 -0.2669  0.5831
 9981SOL     OW31383   5.188   7.094   9.502 -0.0544 -0.1951 -0.2828
 9981SOL    HW131384   5.174   7.150   9.426 -1.7664  0.4533  0.4640
 9981SOL    HW231385   5.186   7.005   9.467 -1.4867  0.0632 -0.9464
 9982SOL     OW31386   2.104   5.652   3.100 -0.0161 -0.3920 -0.7461
 9982SOL    HW131387   2.016   5.671   3.068 -0.4210 -0.4881  0.2804
 9982SOL    HW231388   2.110   5.698   3.183  1.1793  0.2248 -1.1581
 9983SOL     OW31389   7.165   7.696  11.795  0.1098  0.4281 -0.2229
 9983SOL    HW131390   7.113   7.632  11.747  0.4785 -0.1276  0.1058
 9983SOL    HW231391   7.108   7.773  11.802 -0.7749 -0.2524  0.3614
 9984SOL     OW31392   7.460   3.055   6.284 -0.0365 -0.2847 -0.2688
 9984SOL    HW131393   7.427   2.993   6.218 -1.7205  0.9176 -0.6296
 9984SOL    HW231394   7.477   3.135   6.235  1.2634 -0.1638  0.3428
 9985SOL     OW31395   2.440   7.481   0.848 -0.6386  0.1574  0.0766
 9985SOL    HW131396   2.531   7.509   0.847  0.1674 -2.0361  1.8779
 9985SOL    HW231397   2.441   7.393   0.810 -1.9090 -0.0935  0.5414
 9986SOL     OW31398   1.791   3.542  10.719 -0.1954  0.1559  0.1280
 9986SOL    HW131399   1.883   3.543  10.745  0.0609  1.0129 -0.7583
 9986SOL    HW231400   1.793   3.513  10.627 -0.7561  0.7746 -0.0815
 9987SOL     OW31401   0.960   5.454   3.957  0.3373 -0.3705 -0.1824
 9987SOL    HW131402   0.880   5.415   3.922 -0.0901 -0.5593  0.9741
 9987SOL    HW231403   0.932   5.505   4.032  1.3281 -0.6706  0.4154
 9988SOL     OW31404   1.338   1.924   4.980  0.1974  0.1256 -0.1729
 9988SOL    HW131405   1.264   1.863   4.988 -0.2241  0.7846  1.2683
 9988SOL    HW231406   1.416   1.869   4.991 -0.1800 -0.1728  1.0957
 9989SOL     OW31407   3.009   0.831  12.077 -0.2520 -0.2422 -0.4051
 9989SOL    HW131408   3.092   0.877  12.068 -0.2682 -0.4168 -1.6321
 9989SOL    HW231409   2.944   0.900  12.088  0.2013 -0.1346  2.4848
 9990SOL     OW31410   5.424   3.784   6.241 -0.3566 -0.1426 -0.3431
 9990SOL    HW131411   5.403   3.769   6.149  2.4336 -0.1386 -1.0652
 9990SOL    HW231412   5.437   3.697   6.277 -1.2708 -0.1356  0.0189
 9991SOL     OW31413   7.643   1.237   8.346  0.6316  0.2788 -0.0855
 9991SOL    HW131414   7.608   1.278   8.267 -0.1546  0.5640  0.3917
 9991SOL    HW231415   7.658   1.146   8.321 -0.7273  0.0705 -0.2569
 9992SOL     OW31416   1.009   5.808   9.577  0.6895 -0.2897  0.1887
 9992SOL    HW131417   1.046   5.886   9.536 -2.9540  0.3275 -2.5073
 9992SOL    HW231418   0.969   5.760   9.505 -2.4171 -1.4541  2.4325
 9993SOL     OW31419   5.516   6.846   8.858  0.6769  0.2368  0.2859
 9993SOL    HW131420   5.451   6.841   8.928 -0.2265 -1.3062 -0.6001
 9993SOL    HW231421   5.583   6.783   8.884  0.2890 -0.4145 -0.2685
 9994SOL     OW31422   0.751   7.616   3.083 -0.3196  0.4242  0.6124
 9994SOL    HW131423   0.675   7.562   3.060 -1.6309  2.4428 -0.0872
 9994SOL    HW231424   0.735   7.642   3.174 -0.8725  1.4051  0.2550
 9995SOL     OW31425   1.382   2.360  10.437 -0.0671 -0.2550  0.1352
 9995SOL    HW131426   1.342   2.388  10.519 -1.5691  1.9288 -1.2252
 9995SOL    HW231427   1.321   2.296  10.400  0.5517 -1.1521  0.6414
 9996SOL     OW31428   0.900   2.020  10.351  0.7141  0.5341  0.7367
 9996SOL    HW131429   0.981   2.070  10.347  2.3403 -1.9775 -0.9356
 9996SOL    HW231430   0.915   1.955  10.420  0.3968 -0.3328  0.0143
 9997SOL     OW31431   1.420   0.814  11.296  0.2919  0.4880 -0.2006
 9997SOL    HW131432   1.366   0.787  11.371 -0.7576 -0.3316 -1.2039
 9997SOL    HW231433   1.375   0.891  11.262 -0.6157 -0.5082 -1.3621
 9998SOL     OW31434   5.831   1.901   8.356  0.2879 -0.3181  0.7004
 9998SOL    HW131435   5.870   1.854   8.430  1.0059  0.3299  0.7483
 9998SOL    HW231436   5.866   1.856   8.279 -0.3130 -0.8763  0.7479
 9999SOL     OW31437   3.454   7.066   2.145 -0.1632 -0.4152  0.3082
 9999SOL    HW131438   3.519   7.004   2.111  0.9344 -0.0764  1.7304
 9999SOL    HW231439   3.370   7.021   2.133  0.3554 -1.0561 -1.1173
10000SOL     OW31440   0.214   4.508   1.283 -0.5492 -0.3404 -0.1997
10000SOL    HW131441   0.280   4.554   1.335  0.4134  0.1264 -1.7851
10000SOL    HW231442   0.181   4.574   1.222 -0.4565 -1.2760 -1.2897
10001SOL     OW31443   3.785   5.676   2.308  0.1839  0.1232  0.4303
10001SOL    HW131444   3.818   5.601   2.357  0.3959 -1.7486 -2.3223
10001SOL    HW231445   3.815   5.661   2.218 -2.9045  1.5391 -1.0061
10002SOL     OW31446   3.840   4.718   8.215  0.1802  0.0247  0.2313
10002SOL    HW131447   3.753   4.740   8.248 -0.0811 -0.3742 -0.1761
10002SOL    HW231448   3.894   4.713   8.294  0.1006  1.3740  0.4008
10003SOL     OW31449   5.939   2.426   9.661  0.2612 -0.5475  0.1503
10003SOL    HW131450   6.008   2.381   9.710 -1.2871 -0.9910  2.0133
10003SOL    HW231451   5.864   2.428   9.720 -1.2392  0.2490 -1.6706
10004SOL     OW31452   2.162   6.492   1.629 -0.2053 -0.0881 -0.6378
10004SOL    HW131453   2.087   6.520   1.681  0.3947  1.8000 -0.7161
10004SOL    HW231454   2.210   6.432   1.686  0.2629  1.6839  0.8988
10005SOL     OW31455   6.988   1.383   4.601  0.0603  0.1061  0.2124
10005SOL    HW131456   7.051   1.382   4.673  1.0107 -1.2540 -0.5893
10005SOL    HW231457   6.921   1.320   4.626  1.1405 -1.4524 -0.6849
10006SOL     OW31458   1.691   4.266   9.350  0.5126  0.1510  0.3623
10006SOL    HW131459   1.741   4.347   9.345  1.0138 -0.1011  1.2033
10006SOL    HW231460   1.750   4.200   9.313  0.3182  0.0664  0.1997
10007SOL     OW31461   2.283   3.399   6.170 -0.2001  0.1233 -0.4678
10007SOL    HW131462   2.202   3.352   6.192  0.7897 -1.3916  0.1027
10007SOL    HW231463   2.314   3.356   6.090  0.9081 -0.4614  0.2580
10008SOL     OW31464   0.611   3.634   3.220 -0.2752 -0.2527  0.1714
10008SOL    HW131465   0.565   3.702   3.268  0.1214 -0.5288  0.9602
10008SOL    HW231466   0.546   3.601   3.157 -0.6233  0.4968  0.1281
10009SOL     OW31467   7.013   6.797   7.345 -0.1345  0.2340  0.3820
10009SOL    HW131468   6.924   6.762   7.357  0.0208 -0.8141 -1.1872
10009SOL    HW231469   7.013   6.829   7.255  0.9934  0.5154  0.4743
10010SOL     OW31470   5.663   7.668   0.734 -0.0487 -0.7798  0.1648
10010SOL    HW131471   5.751   7.682   0.699  0.3360 -3.3234 -0.0608
10010SOL    HW231472   5.659   7.724   0.812  1.3024  0.2756 -0.4722
10011SOL     OW31473   1.537   4.070   1.990  0.2328  0.3998  0.0104
10011SOL    HW131474   1.586   4.054   2.070 -1.6055 -1.0743  0.9373
10011SOL    HW231475   1.591   4.032   1.920  0.9876 -0.0468  0.8188
10012SOL     OW31476   1.088   0.680   6.802  0.0417 -0.1738 -0.3666
10012SOL    HW131477   1.145   0.688   6.879  1.5018 -0.8454 -1.3346
10012SOL    HW231478   1.029   0.608   6.824  0.6589 -0.5780  0.0077
10013SOL     OW31479   5.789   0.468   8.038  0.6009 -0.4403 -0.0753
10013SOL    HW131480   5.821   0.497   7.953  0.4213 -0.2397 -0.0745
10013SOL    HW231481   5.775   0.549   8.087  0.9201 -0.5595  0.2232
10014SOL     OW31482   5.453   0.029  10.946 -0.1607  0.4875 -0.0297
10014SOL    HW131483   5.427   0.068  10.863 -0.3397  0.5028  0.0312
10014SOL    HW231484   5.516   0.090  10.984 -0.4389  0.7201  0.0653
10015SOL     OW31485   6.630   6.103  11.703 -0.1812 -0.8288  0.7010
10015SOL    HW131486   6.617   6.039  11.773 -0.3676 -0.0667  1.3780
10015SOL    HW231487   6.604   6.187  11.742  1.6224 -0.0724  0.3639
10016SOL     OW31488   4.007   7.384   8.560 -0.7333  0.0273 -0.4994
10016SOL    HW131489   3.936   7.374   8.624  1.0397 -2.6527  1.2019
10016SOL    HW231490   4.079   7.422   8.610  0.1770 -0.6198 -1.2867
10017SOL     OW31491   6.086   0.892   3.844 -0.1365 -0.1680  0.3490
10017SOL    HW131492   6.112   0.955   3.910  0.0608 -1.2988  1.3876
10017SOL    HW231493   5.991   0.889   3.850 -0.2059  0.5711 -0.2351
10018SOL     OW31494   4.952   4.318   9.365 -0.1694 -0.3944 -0.7059
10018SOL    HW131495   5.005   4.244   9.397 -1.8539 -1.9868 -1.4396
10018SOL    HW231496   4.979   4.391   9.420  0.6100 -1.8707  0.9936
10019SOL     OW31497   7.115   5.121   5.260 -0.1900  0.1039  0.6172
10019SOL    HW131498   7.138   5.129   5.167 -0.5497  1.1384  0.6107
10019SOL    HW231499   7.193   5.151   5.307 -0.3296  0.4352  0.6373
10020SOL     OW31500   6.231   5.825   9.873  0.2664  0.1113 -0.2329
10020SOL    HW131501   6.154   5.805   9.926 -0.2727  0.1397 -0.9915
10020SOL    HW231502   6.203   5.897   9.817  1.2876  1.0757  0.4501
10021SOL     OW31503   2.245   5.239   3.495  0.2266 -0.1593 -0.4300
10021SOL    HW131504   2.240   5.334   3.481  0.2707 -0.0005  0.5462
10021SOL    HW231505   2.293   5.207   3.419  2.4684  0.9399  0.4243
10022SOL     OW31506   7.270   6.665   2.348  0.6112 -0.2068 -0.2363
10022SOL    HW131507   7.240   6.575   2.359  1.1261 -0.2403  1.1066
10022SOL    HW231508   7.338   6.676   2.414 -1.1204  1.9159  1.3301
10023SOL     OW31509   6.837   7.257   1.833  0.5193 -0.4052  0.3011
10023SOL    HW131510   6.825   7.162   1.843  0.2222 -0.2491  1.6984
10023SOL    HW231511   6.903   7.279   1.899  1.2771  0.2289 -0.6590
10024SOL     OW31512   3.084   2.671   4.398  0.0572 -0.3323  0.4105
10024SOL    HW131513   2.994   2.668   4.367 -0.4849  1.4552  1.6732
10024SOL    HW231514   3.136   2.642   4.323 -1.4421  0.2080 -0.8988
10025SOL     OW31515   0.062   3.717   1.208  0.2845  0.1251 -0.5936
10025SOL    HW131516   0.137   3.676   1.251 -0.1264 -0.7053 -0.6475
10025SOL    HW231517   0.074   3.811   1.223  0.5641 -0.0947  0.6532
10026SOL     OW31518   0.060   5.460  11.509 -0.2812  0.0583  0.3482
10026SOL    HW131519   0.072   5.549  11.542 -0.0644  0.3813 -0.5838
10026SOL    HW231520   0.137   5.444  11.455 -0.6989 -0.4118 -0.1151
10027SOL     OW31521   2.654   1.470  10.342  0.2661  0.4330 -0.6764
10027SOL    HW131522   2.676   1.528  10.415 -0.3579  0.8581 -0.8122
10027SOL    HW231523   2.636   1.529  10.269 -1.2829  0.1332 -0.5739
10028SOL     OW31524   6.162   5.455   2.091 -0.5305  0.1542 -0.3530
10028SOL    HW131525   6.197   5.497   2.170 -0.2363  0.2864 -0.5531
10028SOL    HW231526   6.166   5.523   2.024 -0.8028  0.0482 -0.4773
10029SOL     OW31527   5.096   1.490   5.753 -0.1886  0.0851  0.1941
10029SOL    HW131528   5.135   1.402   5.751 -1.5699 -0.5659  0.3107
10029SOL    HW231529   5.056   1.500   5.667  0.1109  0.6792  0.1211
10030SOL     OW31530   5.169   1.985   4.128  0.0951 -0.2407 -0.2208
10030SOL    HW131531   5.187   2.042   4.203 -0.4667 -0.7487  0.3093
10030SOL    HW231532   5.080   2.008   4.101 -0.3056 -1.1551  0.2745
10031SOL     OW31533   1.846   4.011   4.232  0.4843  0.6884 -0.3232
10031SOL    HW131534   1.868   4.104   4.234 -0.7929  1.0121  1.6594
10031SOL    HW231535   1.876   3.977   4.316 -3.1101  0.4085  1.0449
10032SOL     OW31536   7.951   2.537   5.755 -0.5050 -0.0759 -0.1284
10032SOL    HW131537   7.969   2.443   5.751  2.6077  0.2644  2.1367
10032SOL    HW231538   7.904   2.549   5.838 -0.9533  0.3847 -0.4407
10033SOL     OW31539   5.392   1.358   1.513 -0.3567 -0.6501 -0.6835
10033SOL    HW131540   5.305   1.396   1.523 -0.0832 -0.1172 -0.2839
10033SOL    HW231541   5.450   1.433   1.498  0.1683 -0.9136 -0.0297
10034SOL     OW31542   6.395   3.063  10.030 -0.4694  0.4442 -0.3962
10034SOL    HW131543   6.368   3.154  10.039 -1.0033  0.2927 -0.4247
10034SOL    HW231544   6.401   3.031  10.120 -0.9084  0.3312 -0.4046
10035SOL     OW31545   2.978   6.792   4.052  0.4552  0.1523 -0.1996
10035SOL    HW131546   3.061   6.753   4.023  1.8683  2.7064  0.1863
10035SOL    HW231547   2.955   6.854   3.983  0.2023  1.2968  0.8917
10036SOL     OW31548   2.349   3.971   6.228  0.3216 -0.0883  0.1354
10036SOL    HW131549   2.406   3.910   6.182 -0.5736 -0.1413 -0.9257
10036SOL    HW231550   2.346   4.049   6.172 -0.5185 -0.0263  0.2515
10037SOL     OW31551   7.366   1.200   9.999 -0.0809 -0.0441 -0.6349
10037SOL    HW131552   7.353   1.284   9.954  0.4297  0.7636  0.6570
10037SOL    HW231553   7.352   1.134   9.931  1.2922  1.1306 -2.1434
10038SOL     OW31554   1.703   7.954   3.663 -0.4008  0.0071 -0.2254
10038SOL    HW131555   1.696   7.988   3.752  1.1354 -1.2532  0.4182
10038SOL    HW231556   1.644   7.878   3.662 -1.0015  0.4717 -0.5288
10039SOL     OW31557   3.826   4.366  11.563  0.6295  0.0184 -0.6462
10039SOL    HW131558   3.846   4.459  11.558  0.4396  0.1687  0.9082
10039SOL    HW231559   3.813   4.339  11.472  1.5623  1.3027 -1.1903
10040SOL     OW31560   6.263   0.058   2.801 -0.0394  0.1338  0.4525
10040SOL    HW131561   6.250   0.028   2.711 -0.9600  0.6678  0.4024
10040SOL    HW231562   6.247  -0.020   2.855  0.2683 -0.1236  0.1806
10041SOL     OW31563   0.467   0.678  11.841  0.1628  0.1562  0.5639
10041SOL    HW131564   0.444   0.762  11.799 -1.7830 -0.5341  0.1449
10041SOL    HW231565   0.506   0.627  11.770 -0.1411  0.1457  0.4003
10042SOL     OW31566   6.699   6.796  11.441  0.2560 -0.2272 -0.3832
10042SOL    HW131567   6.671   6.711  11.407  0.2298 -0.3167 -0.1425
10042SOL    HW231568   6.619   6.837  11.474  0.4538 -0.6511  0.6685
10043SOL     OW31569   7.733   7.954  10.901  0.0427 -0.6013 -0.2719
10043SOL    HW131570   7.752   7.860  10.901  0.5590 -0.5024 -0.2884
10043SOL    HW231571   7.658   7.964  10.959 -1.4075 -1.2957 -1.9215
10044SOL     OW31572   5.584   2.620   8.930  0.1960  0.2972 -0.1714
10044SOL    HW131573   5.588   2.712   8.906 -0.4870 -0.0860 -1.9149
10044SOL    HW231574   5.554   2.620   9.021  0.4392  1.7890 -0.0692
10045SOL     OW31575   5.284   3.913   2.053 -0.6946  0.0110 -0.4337
10045SOL    HW131576   5.249   3.870   1.975 -0.4410 -1.0757  0.0318
10045SOL    HW231577   5.211   3.963   2.089 -0.6690  0.9882 -1.6621
10046SOL     OW31578   7.093   2.934   4.612  0.4812 -0.5823 -0.2811
10046SOL    HW131579   7.002   2.911   4.632  0.4037 -0.4906 -0.5166
10046SOL    HW231580   7.101   3.025   4.639  0.2723 -0.3463 -0.9747
10047SOL     OW31581   6.148   3.326   2.978  0.1609  0.4386 -0.2339
10047SOL    HW131582   6.114   3.393   2.919 -1.7006  0.0102  0.2654
10047SOL    HW231583   6.222   3.287   2.932  0.0902  1.5744 -1.3317
10048SOL     OW31584   0.537   7.422   8.631  0.4401 -0.3895 -0.2097
10048SOL    HW131585   0.465   7.401   8.689  1.1331 -0.5866  0.6005
10048SOL    HW231586   0.603   7.355   8.649  1.7602  1.0839  0.7807
10049SOL     OW31587   6.784   3.680   1.886  0.1566  0.7708 -0.4864
10049SOL    HW131588   6.789   3.767   1.846  0.0933  0.6385 -0.7902
10049SOL    HW231589   6.765   3.621   1.813 -0.7872  0.6283 -0.1466
10050SOL     OW31590   5.565   1.950   4.422  0.0200 -0.3170 -0.3869
10050SOL    HW131591   5.570   1.910   4.508  1.6142 -0.2333 -0.4128
10050SOL    HW231592   5.654   1.981   4.404 -0.5897  0.9546 -1.4493
10051SOL     OW31593   5.689   7.626   3.255  0.1056 -0.5002  0.0005
10051SOL    HW131594   5.760   7.678   3.293 -0.4948 -0.8147  1.6302
10051SOL    HW231595   5.635   7.691   3.209  1.6615 -0.3214 -1.7132
10052SOL     OW31596   0.577   0.174   7.828 -0.3415 -0.0590 -0.2273
10052SOL    HW131597   0.565   0.085   7.794  1.6470  0.0960 -1.4757
10052SOL    HW231598   0.546   0.231   7.758  1.4851  0.2392 -0.8368
10053SOL     OW31599   6.594   7.505   6.645  0.1200  0.8158  0.1861
10053SOL    HW131600   6.634   7.566   6.707  0.9296 -0.3141  0.8184
10053SOL    HW231601   6.500   7.527   6.646  0.0884  0.7354  1.9352
10054SOL     OW31602   1.298   6.468   3.572  0.2342 -0.0288  0.7683
10054SOL    HW131603   1.245   6.546   3.588 -1.2079 -1.1170  1.5332
10054SOL    HW231604   1.373   6.500   3.522  0.7713  2.1934  2.8086
10055SOL     OW31605   5.067   6.386   9.902  0.7959  0.6664 -0.1659
10055SOL    HW131606   5.102   6.334   9.830  0.5163  0.3244 -0.0610
10055SOL    HW231607   5.143   6.404   9.958  0.6312 -1.1297  0.7169
10056SOL     OW31608   6.854   7.397   6.493  0.5300 -0.2692  0.5428
10056SOL    HW131609   6.948   7.404   6.512  0.5171 -0.9817  0.8873
10056SOL    HW231610   6.851   7.360   6.405  0.5658  0.0150  0.4180
10057SOL     OW31611   3.988   2.382   0.444 -0.2460 -0.7061 -0.1679
10057SOL    HW131612   3.930   2.345   0.378 -0.7465 -2.4274  1.1457
10057SOL    HW231613   3.939   2.455   0.482 -0.7282 -0.8895 -0.4348
10058SOL     OW31614   4.742   0.301   9.096  0.3624  0.5209 -0.0843
10058SOL    HW131615   4.671   0.364   9.078  1.0975  1.3983  0.0208
10058SOL    HW231616   4.809   0.353   9.139  0.4629 -0.6274  1.2003
10059SOL     OW31617   5.363   6.202   2.529 -0.2937 -0.1419  0.7154
10059SOL    HW131618   5.303   6.138   2.490  0.4887 -0.7618  0.5080
10059SOL    HW231619   5.357   6.185   2.623 -1.4251  0.6892  0.8251
10060SOL     OW31620   4.397   2.965   0.766 -0.2277 -0.5509 -0.0494
10060SOL    HW131621   4.385   2.949   0.860  0.6357 -0.3912  0.0995
10060SOL    HW231622   4.472   3.025   0.762 -0.8242  0.1668 -0.7961
10061SOL     OW31623   1.892   2.879   3.145 -0.1725  0.4051 -0.0109
10061SOL    HW131624   1.918   2.883   3.237 -1.3463  0.3997  0.3436
10061SOL    HW231625   1.961   2.828   3.103  1.1263  1.5992  0.5783
10062SOL     OW31626   5.785   7.396   1.830 -0.4130  0.0239 -0.3686
10062SOL    HW131627   5.830   7.376   1.912 -0.2462  2.7041  0.2892
10062SOL    HW231628   5.693   7.403   1.854 -0.3317  1.0722 -0.3245
10063SOL     OW31629   1.685   6.577   6.691 -0.1712 -0.2997  0.3578
10063SOL    HW131630   1.779   6.570   6.677 -0.1490  0.9475 -0.2249
10063SOL    HW231631   1.675   6.606   6.781  0.0746  0.8677  0.0259
10064SOL     OW31632   1.384   2.362   0.416 -0.3132 -0.4108  0.2566
10064SOL    HW131633   1.383   2.370   0.511 -0.7507  0.2475  0.2026
10064SOL    HW231634   1.477   2.357   0.393 -0.2032 -0.5113  0.7134
10065SOL     OW31635   7.664   3.860  11.922  0.0318  0.4634  0.1777
10065SOL    HW131636   7.653   3.937  11.978 -0.9406  0.3024  0.2320
10065SOL    HW231637   7.629   3.887  11.837  1.0509  0.5449 -0.2308
10066SOL     OW31638   6.634   6.560   4.966  0.6307  0.1374 -0.0751
10066SOL    HW131639   6.696   6.525   5.030  0.3181 -1.4258 -0.5858
10066SOL    HW231640   6.688   6.585   4.891  0.7563 -0.2334 -0.1102
10067SOL     OW31641   5.377   7.167   2.654 -0.2861  0.5944  0.3996
10067SOL    HW131642   5.418   7.087   2.622 -2.0467 -1.7002  3.3064
10067SOL    HW231643   5.449   7.218   2.689  0.7019 -0.7069  0.3512
10068SOL     OW31644   3.244   5.135   2.092 -0.7633 -0.3162 -0.0521
10068SOL    HW131645   3.167   5.081   2.074 -0.4274 -0.7568 -0.1641
10068SOL    HW231646   3.316   5.073   2.099 -0.3552  0.1266 -0.2820
10069SOL     OW31647   5.763   3.617   3.607  0.1553 -0.1905 -0.1112
10069SOL    HW131648   5.819   3.544   3.633  0.2772 -1.1902 -2.8650
10069SOL    HW231649   5.685   3.607   3.662  0.1576 -2.4362 -0.3916
10070SOL     OW31650   3.951   2.834   3.118  0.3648 -0.2586  0.3915
10070SOL    HW131651   4.014   2.776   3.160  0.6162 -0.4068 -0.1793
10070SOL    HW231652   3.897   2.868   3.190  0.0763 -1.3656  0.7171
10071SOL     OW31653   6.333   2.116   0.946 -0.4656  0.1018 -0.4139
10071SOL    HW131654   6.295   2.028   0.952 -0.3298 -0.1764 -2.6692
10071SOL    HW231655   6.266   2.167   0.901 -0.1434  0.9245  0.0228
10072SOL     OW31656   7.934   0.424   9.350 -0.4005  0.4343  0.2816
10072SOL    HW131657   7.974   0.464   9.272 -3.8797  0.4784 -1.7013
10072SOL    HW231658   7.936   0.330   9.332  0.1471  0.3304  0.8757
10073SOL     OW31659   7.354   5.920  10.193 -0.0283 -0.4616 -0.3711
10073SOL    HW131660   7.337   6.001  10.144 -0.9405 -0.0746  0.5408
10073SOL    HW231661   7.449   5.917  10.203  0.0472  0.2549 -0.8143
10074SOL     OW31662   6.328   1.628   9.210  0.2917  0.1468 -0.3090
10074SOL    HW131663   6.391   1.697   9.190 -0.1921  0.4390 -0.8527
10074SOL    HW231664   6.341   1.563   9.142 -0.5619  0.6037 -0.9344
10075SOL     OW31665   2.227   5.922  10.779  0.0934  0.2461  0.0059
10075SOL    HW131666   2.192   5.861  10.844  2.3162 -0.5719  0.5050
10075SOL    HW231667   2.321   5.906  10.779  0.5279  2.4773 -1.1412
10076SOL     OW31668   1.045   7.840   4.253 -0.0758  0.4024 -0.2320
10076SOL    HW131669   1.032   7.927   4.214 -0.2495  0.8008  0.6887
10076SOL    HW231670   1.138   7.838   4.276  0.1396 -0.0265 -1.1073
10077SOL     OW31671   2.395   5.163   7.450 -0.7785  0.4143  0.1880
10077SOL    HW131672   2.363   5.180   7.361  0.1444  2.5115  0.1903
10077SOL    HW231673   2.316   5.142   7.500 -1.4999  0.5895 -0.8435
10078SOL     OW31674   2.802   7.204   5.158 -0.5013  0.0726 -0.0048
10078SOL    HW131675   2.781   7.132   5.218 -3.5444 -0.3282 -1.3486
10078SOL    HW231676   2.812   7.280   5.215 -5.1291  0.1219  1.2055
10079SOL     OW31677   1.956   6.742  12.149 -0.3040  0.1317 -0.6438
10079SOL    HW131678   1.974   6.834  12.131  1.5809 -0.4682 -2.1029
10079SOL    HW231679   1.974   6.732  12.242  2.4484  0.6564 -1.0371
10080SOL     OW31680   2.182   1.052   4.823  0.1586 -0.1929 -0.4883
10080SOL    HW131681   2.227   1.104   4.756 -1.3607  1.3128 -0.3994
10080SOL    HW231682   2.097   1.032   4.785 -1.1465  1.5637  1.2915
10081SOL     OW31683   4.809   2.270   5.828  0.0379 -0.2401  0.1963
10081SOL    HW131684   4.761   2.283   5.746  1.8300 -0.2545 -0.9245
10081SOL    HW231685   4.848   2.355   5.847 -0.2974 -0.2595  0.9961
10082SOL     OW31686   4.828   1.467   4.996 -0.0036 -0.8006  0.3081
10082SOL    HW131687   4.894   1.495   4.933  0.3362 -0.4787  0.8019
10082SOL    HW231688   4.747   1.459   4.944  0.1065  0.1684 -0.0267
10083SOL     OW31689   7.776   6.593   6.250 -0.2110  0.2474 -0.1662
10083SOL    HW131690   7.831   6.671   6.254 -0.1886  0.1949  2.8736
10083SOL    HW231691   7.694   6.623   6.212  0.6012  1.1682 -1.2474
10084SOL     OW31692   0.458   2.318   9.559 -0.6978 -0.1144 -0.1420
10084SOL    HW131693   0.536   2.344   9.610  0.2696 -0.3337 -1.4605
10084SOL    HW231694   0.390   2.380   9.587  0.6936  1.8914 -0.9058
10085SOL     OW31695   5.125   4.996   9.037  0.1407 -0.1522 -0.1784
10085SOL    HW131696   5.133   5.071   8.979 -0.9475  0.1570  0.0565
10085SOL    HW231697   5.037   5.003   9.075  0.4549 -0.8939  0.7421
10086SOL     OW31698   4.050   6.969   7.617 -0.0876 -0.1076 -0.1262
10086SOL    HW131699   4.126   6.927   7.576 -1.2459 -1.5062 -0.9131
10086SOL    HW231700   4.020   6.906   7.683  0.5102  1.2327  1.5043
10087SOL     OW31701   0.417   0.546  10.691  0.5265  0.2335  0.3157
10087SOL    HW131702   0.478   0.483  10.654  0.4592  0.5574 -0.3752
10087SOL    HW231703   0.472   0.615  10.728  0.5957 -0.1013  0.8369
10088SOL     OW31704   6.179   3.656   1.559 -0.3600  0.0659  0.0818
10088SOL    HW131705   6.122   3.722   1.520  0.9160  1.4589  0.4736
10088SOL    HW231706   6.206   3.693   1.643  0.3166 -1.0029  0.3702
10089SOL     OW31707   4.168   2.323   8.875 -0.7087  0.0888  0.8969
10089SOL    HW131708   4.185   2.411   8.911 -1.1256  1.1336 -1.3244
10089SOL    HW231709   4.075   2.324   8.853 -0.3613 -0.2627 -0.7158
10090SOL     OW31710   7.035   6.243   8.940 -0.0613  0.5438  0.4067
10090SOL    HW131711   7.070   6.268   8.855  0.8705 -1.8525  0.0137
10090SOL    HW231712   7.109   6.200   8.984 -1.6121 -1.8916  0.7909
10091SOL     OW31713   5.312   7.948  11.981 -0.2544  0.0414  0.0060
10091SOL    HW131714   5.218   7.959  11.966 -0.4958 -2.1809 -0.5499
10091SOL    HW231715   5.319   7.869  12.034  1.3141 -0.0616 -0.2816
10092SOL     OW31716   6.316   2.676   2.935  0.3319 -0.3120 -0.1887
10092SOL    HW131717   6.279   2.764   2.928 -1.5145 -1.0450 -0.1279
10092SOL    HW231718   6.302   2.651   3.026 -0.3587 -1.1708 -0.5261
10093SOL     OW31719   4.258   0.562   6.527  0.2600  0.0018  0.4253
10093SOL    HW131720   4.330   0.606   6.572  0.2566 -0.9776  1.4339
10093SOL    HW231721   4.300   0.492   6.477  0.3207  1.3690 -1.5693
10094SOL     OW31722   3.849   1.474   2.606  0.2982 -0.6833  0.0200
10094SOL    HW131723   3.907   1.450   2.678  0.9192 -0.7276 -0.4915
10094SOL    HW231724   3.895   1.446   2.527 -0.2351 -0.3457 -0.4194
10095SOL     OW31725   4.848   0.975   6.779  0.4707 -0.1262 -0.2203
10095SOL    HW131726   4.920   1.000   6.837  0.7607 -1.2030 -0.0926
10095SOL    HW231727   4.861   1.028   6.701 -0.1408  1.6164  0.8247
10096SOL     OW31728   3.867   1.064   0.307  0.4704 -0.4387  0.0759
10096SOL    HW131729   3.778   1.099   0.319  0.4933  0.0582 -1.0276
10096SOL    HW231730   3.917   1.139   0.275  1.1770 -0.8396  0.2408
10097SOL     OW31731   3.944   5.255   3.901  0.1993 -0.3907  0.0815
10097SOL    HW131732   3.926   5.268   3.994 -1.1733 -0.4435 -0.1647
10097SOL    HW231733   3.900   5.174   3.879  0.9110 -0.6282 -0.5286
10098SOL     OW31734   4.091   1.749   0.191  0.3539  0.7380  0.4373
10098SOL    HW131735   4.127   1.745   0.280  1.6705  1.2850 -0.0459
10098SOL    HW231736   4.083   1.842   0.172  1.4374  0.6680 -0.5096
10099SOL     OW31737   0.251   2.058   6.429  0.5921  0.1437 -0.0987
10099SOL    HW131738   0.233   2.105   6.510 -0.9698 -0.2932 -0.1565
10099SOL    HW231739   0.205   2.109   6.361 -0.4570 -1.0046 -0.2744
10100SOL     OW31740   0.096   3.403   4.169 -0.5297  0.2980 -0.0644
10100SOL    HW131741   0.187   3.432   4.179 -0.7775  0.5915  1.7986
10100SOL    HW231742   0.103   3.317   4.127  0.4821  1.0707 -1.5403
10101SOL     OW31743   0.477   7.529   2.893 -0.2588  0.3825 -0.4858
10101SOL    HW131744   0.532   7.555   2.820  0.7924  0.4619  0.3027
10101SOL    HW231745   0.394   7.503   2.854  1.1971 -2.4228 -2.0070
10102SOL     OW31746   4.037   3.242   6.725  0.6087 -0.6060 -0.1926
10102SOL    HW131747   3.988   3.323   6.738  2.0451  0.2193  0.4498
10102SOL    HW231748   4.044   3.233   6.630 -0.1703 -0.3553 -0.2764
10103SOL     OW31749   2.751   6.395   9.425  0.2684  0.1196  0.4328
10103SOL    HW131750   2.757   6.418   9.518  0.5731  1.4066  0.1135
10103SOL    HW231751   2.664   6.427   9.398 -0.1054 -0.8726  0.4285
10104SOL     OW31752   3.333   3.958   3.915  0.0530  0.1576  0.2726
10104SOL    HW131753   3.394   3.890   3.942  0.5102  0.5499  0.2500
10104SOL    HW231754   3.246   3.918   3.921  0.4465 -1.4000 -2.5782
10105SOL     OW31755   5.991   6.552   0.296  0.1287 -0.7709 -0.4820
10105SOL    HW131756   6.037   6.478   0.336  0.7361 -1.0452 -1.6315
10105SOL    HW231757   6.059   6.600   0.249  0.3321  2.2648  2.5750
10106SOL     OW31758   4.530   7.595   9.811  0.0882  0.3864  0.4511
10106SOL    HW131759   4.589   7.526   9.780 -0.6381 -0.3033  0.5474
10106SOL    HW231760   4.550   7.603   9.905 -0.4725 -0.3832  0.6497
10107SOL     OW31761   0.097   5.362   0.778  0.1680  0.2943 -0.5382
10107SOL    HW131762   0.117   5.385   0.869 -0.0467 -1.8819  0.1229
10107SOL    HW231763   0.179   5.376   0.731  0.9900 -0.8169  0.4964
10108SOL     OW31764   0.326   5.126   1.214 -0.1025  0.4720  0.0762
10108SOL    HW131765   0.246   5.150   1.260 -0.8767  0.8435 -1.4066
10108SOL    HW231766   0.392   5.187   1.246 -0.0634 -0.6313  2.2392
10109SOL     OW31767   1.053   5.235   3.557 -0.5124 -0.0312  0.1073
10109SOL    HW131768   1.044   5.292   3.481  1.2686  1.5590  1.0046
10109SOL    HW231769   1.093   5.155   3.523  2.7428  1.6406 -0.3718
10110SOL     OW31770   2.230   6.455   3.405  0.0997 -0.7879 -0.1841
10110SOL    HW131771   2.241   6.539   3.359 -0.4981 -1.2723 -1.2404
10110SOL    HW231772   2.258   6.389   3.343 -2.1450 -1.5745 -0.4647
10111SOL     OW31773   1.536   5.504   1.522 -0.2178 -0.0720 -0.3249
10111SOL    HW131774   1.630   5.499   1.537 -0.0564  0.6152 -1.0524
10111SOL    HW231775   1.521   5.594   1.493 -1.0333 -0.3004 -0.6420
10112SOL     OW31776   3.291   2.669   2.914 -0.1309  0.0063 -0.0046
10112SOL    HW131777   3.272   2.594   2.857  0.6556 -0.8750  0.8654
10112SOL    HW231778   3.254   2.644   2.999 -1.1573  1.2413 -0.0614
10113SOL     OW31779   0.135   1.671  10.402 -0.0573  0.4300 -0.0638
10113SOL    HW131780   0.198   1.719  10.456  0.6153 -0.2111 -0.2749
10113SOL    HW231781   0.083   1.621  10.464  0.9721 -0.6099 -0.0261
10114SOL     OW31782   4.338   1.470  10.936  0.1444 -0.0823 -0.1503
10114SOL    HW131783   4.354   1.382  10.904  0.5172 -0.0420 -0.0812
10114SOL    HW231784   4.403   1.524  10.891 -0.3643  0.2268 -0.5178
10115SOL     OW31785   7.942   4.588   0.760  0.3262 -0.2379 -0.2791
10115SOL    HW131786   7.880   4.517   0.741 -0.3204 -0.1165  1.2291
10115SOL    HW231787   7.935   4.646   0.684  0.0871 -1.2326 -1.0511
10116SOL     OW31788   0.576   3.540   1.259 -0.2242 -0.0122  0.0973
10116SOL    HW131789   0.567   3.520   1.352 -1.9549 -1.1088 -0.2542
10116SOL    HW231790   0.624   3.465   1.223  2.4018  1.4063  0.3902
10117SOL     OW31791   0.565   7.763   7.799 -0.0947  0.3650  0.4960
10117SOL    HW131792   0.520   7.837   7.760 -0.4181 -1.0014 -1.9066
10117SOL    HW231793   0.658   7.785   7.793 -0.2090  0.8482  0.4507
10118SOL     OW31794   4.319   6.273   8.712 -0.0208 -0.1743  0.1902
10118SOL    HW131795   4.383   6.344   8.718  1.3742 -1.3555 -0.3659
10118SOL    HW231796   4.265   6.283   8.791  1.4687  0.2440  1.1943
10119SOL     OW31797   7.021   5.718   3.030  0.7868 -0.1250  0.3013
10119SOL    HW131798   7.002   5.699   3.122 -1.0758 -0.9327 -0.1907
10119SOL    HW231799   7.112   5.746   3.029  0.8680 -0.1713  2.3780
10120SOL     OW31800   4.887   5.156   7.739 -0.2507 -0.5272  0.4336
10120SOL    HW131801   4.795   5.133   7.725  0.1840 -2.1413 -0.0420
10120SOL    HW231802   4.935   5.102   7.676  1.0197  0.4695  0.5016
10121SOL     OW31803   0.294   2.119   6.045  0.1266  0.3219  0.5413
10121SOL    HW131804   0.286   2.186   6.112  2.3207  0.6238  0.5799
10121SOL    HW231805   0.365   2.150   5.988 -0.2786 -0.9221 -0.6928
10122SOL     OW31806   7.056   1.851  11.971  0.4181  0.7970  0.0514
10122SOL    HW131807   7.074   1.915  12.040 -1.0608  0.4594  0.7787
10122SOL    HW231808   7.019   1.903  11.899 -1.8109  0.6955  1.0465
10123SOL     OW31809   0.540   0.899   2.130 -0.5209  0.0610  0.3909
10123SOL    HW131810   0.521   0.893   2.036  0.0498  1.0764  0.1910
10123SOL    HW231811   0.528   0.991   2.151  2.6057  0.5673  0.5333
10124SOL     OW31812   3.971   5.417   3.376 -0.2980 -0.1451 -1.2387
10124SOL    HW131813   3.996   5.451   3.462 -2.1746 -2.2197  0.2481
10124SOL    HW231814   4.053   5.386   3.338  0.3596 -0.9012  0.6639
10125SOL     OW31815   0.971   0.450   2.878  0.0100  0.2819 -0.5202
10125SOL    HW131816   0.889   0.474   2.922  0.1440 -1.2400  0.6230
10125SOL    HW231817   0.947   0.441   2.786 -0.8971  0.7896 -0.3470
10126SOL     OW31818   2.178   1.409   3.477 -0.2287  0.1151 -0.3317
10126SOL    HW131819   2.203   1.447   3.561 -0.1024  1.4116 -0.9307
10126SOL    HW231820   2.257   1.364   3.447 -0.3649 -0.6181  0.3650
10127SOL     OW31821   5.238   3.366  10.591 -0.0522  0.5339  0.4846
10127SOL    HW131822   5.261   3.450  10.550 -0.4704  0.6594  0.4967
10127SOL    HW231823   5.321   3.332  10.625  1.0032 -1.0570 -3.1147
10128SOL     OW31824   4.999   4.518   9.005 -0.4667 -0.4288 -0.4286
10128SOL    HW131825   4.983   4.453   8.937 -0.3859 -1.6360  0.6685
10128SOL    HW231826   4.934   4.499   9.073 -1.2154  1.4069 -0.5838
10129SOL     OW31827   5.248   3.454  11.781  0.9673 -1.2731  0.7386
10129SOL    HW131828   5.242   3.436  11.688  1.5902 -0.9671  0.6343
10129SOL    HW231829   5.163   3.427  11.817  1.6351 -3.8596  0.5177
10130SOL     OW31830   6.829   6.225   4.684 -0.8768 -0.0365 -0.2096
10130SOL    HW131831   6.777   6.150   4.654  2.1396 -2.5341  0.2386
10130SOL    HW231832   6.873   6.256   4.606 -1.2500  0.5543 -0.1904
10131SOL     OW31833   2.818   1.097   2.362 -0.2149  0.4226  0.2180
10131SOL    HW131834   2.791   1.185   2.390 -0.5290  0.1031  0.9554
10131SOL    HW231835   2.736   1.050   2.351 -0.0233 -0.1102  0.9691
10132SOL     OW31836   1.232   1.035   6.876  0.4970  0.1478  0.1164
10132SOL    HW131837   1.324   1.045   6.898  0.4093  0.1190  0.4999
10132SOL    HW231838   1.190   1.006   6.957 -0.0553  1.2888  0.2627
10133SOL     OW31839   1.416   1.190   1.371  0.1606 -0.2839  0.0791
10133SOL    HW131840   1.491   1.223   1.419  0.0278  0.5629 -0.2779
10133SOL    HW231841   1.453   1.136   1.301  0.7084  3.0007 -2.3732
10134SOL     OW31842   5.613   4.984   0.319  0.2767  0.2322 -0.3377
10134SOL    HW131843   5.703   4.990   0.353  1.7394  2.0958 -4.0411
10134SOL    HW231844   5.615   4.909   0.260 -0.5248  0.4930 -0.7057
10135SOL     OW31845   6.485   0.468   1.194  0.7824  0.3297 -0.2709
10135SOL    HW131846   6.515   0.380   1.213  1.7262  0.7205  0.1156
10135SOL    HW231847   6.392   0.458   1.172  0.3950 -0.5278  1.5924
10136SOL     OW31848   7.501   2.167   8.210  1.1160  0.1273  0.5982
10136SOL    HW131849   7.476   2.125   8.292  0.0936 -0.8568 -0.1934
10136SOL    HW231850   7.568   2.110   8.173 -0.8815 -1.3800 -0.8956
10137SOL     OW31851   2.480   4.306   2.904  0.1843 -0.1701  0.1601
10137SOL    HW131852   2.513   4.293   2.993 -1.3120 -1.1585  0.6093
10137SOL    HW231853   2.550   4.272   2.848  0.9099 -0.0503  0.9656
10138SOL     OW31854   4.141   6.219   3.861 -0.2849  0.0497  0.2660
10138SOL    HW131855   4.117   6.166   3.937  0.6517  0.2047  0.6907
10138SOL    HW231856   4.165   6.304   3.897  1.4341 -0.2643 -0.0189
10139SOL     OW31857   6.371   7.259   7.480 -0.5495  0.5854 -0.0016
10139SOL    HW131858   6.341   7.246   7.390  1.1107  0.8141 -0.6151
10139SOL    HW231859   6.307   7.318   7.518 -2.9980 -1.8262 -0.0517
10140SOL     OW31860   4.651   5.956   8.444  0.4330  0.3695 -0.0889
10140SOL    HW131861   4.634   5.921   8.531  0.8891 -0.4522 -0.3230
10140SOL    HW231862   4.711   6.029   8.458 -0.5264  1.0907  0.4008
10141SOL     OW31863   5.663   6.888   4.084 -0.4168  0.7715 -0.1267
10141SOL    HW131864   5.729   6.860   4.020  0.2871  0.1277  0.8540
10141SOL    HW231865   5.581   6.892   4.034 -0.2048 -1.3344 -0.7283
10142SOL     OW31866   7.573   6.173   6.833 -0.0826 -0.9307  0.2871
10142SOL    HW131867   7.626   6.094   6.824  1.8011  0.1040  1.5673
10142SOL    HW231868   7.597   6.208   6.919 -0.5836  1.2132 -0.3789
10143SOL     OW31869   6.605   5.151  12.234 -0.1127  0.0521  0.2299
10143SOL    HW131870   6.586   5.057  12.230 -0.1017  0.0828 -0.9513
10143SOL    HW231871   6.598   5.173  12.327 -2.8974 -0.5495  0.2449
10144SOL     OW31872   5.851   1.387   8.219  0.0866  0.3531 -0.3094
10144SOL    HW131873   5.864   1.318   8.154 -2.4879 -1.8268  1.2785
10144SOL    HW231874   5.771   1.433   8.191  0.4089  1.0933 -0.0508
10145SOL     OW31875   3.259   4.856   2.490  0.7668  0.2974  0.2213
10145SOL    HW131876   3.227   4.939   2.454  0.3571 -0.5389 -1.4477
10145SOL    HW231877   3.182   4.799   2.492  0.4577  0.6138  3.6870
10146SOL     OW31878   7.442   3.587   5.601  0.2388 -0.8635  0.0772
10146SOL    HW131879   7.433   3.575   5.506  0.0165  1.1526 -0.2066
10146SOL    HW231880   7.526   3.547   5.622  1.0927  0.1245 -1.2796
10147SOL     OW31881   1.722   5.117   5.503 -0.5989 -0.4505  0.2113
10147SOL    HW131882   1.750   5.105   5.412 -0.3643  0.3609  0.1737
10147SOL    HW231883   1.683   5.032   5.527  0.4977 -1.1038 -0.2205
10148SOL     OW31884   7.848   1.031   4.441 -0.2106  0.0515 -0.1032
10148SOL    HW131885   7.786   1.010   4.371 -0.7120  0.6742  0.1449
10148SOL    HW231886   7.823   0.975   4.514 -0.1439 -0.0721 -0.1732
10149SOL     OW31887   2.059   3.876   1.825 -0.3207  0.1008 -0.1909
10149SOL    HW131888   2.047   3.961   1.868 -2.0254  0.2253 -0.8296
10149SOL    HW231889   2.111   3.895   1.748  0.1618  0.3927  0.2007
10150SOL     OW31890   1.878   6.239  10.771  0.2557  0.4712  0.2067
10150SOL    HW131891   1.788   6.264  10.748  0.2955  2.6192  2.0091
10150SOL    HW231892   1.905   6.305  10.834  1.6626 -2.4416  2.9300
10151SOL     OW31893   4.488   7.264   8.449  0.2105  0.0134  0.2168
10151SOL    HW131894   4.462   7.317   8.373  1.9424  0.2733 -0.2262
10151SOL    HW231895   4.414   7.205   8.463  0.3115 -0.8675 -2.4444
10152SOL     OW31896   0.141   6.133   3.412 -0.7351  0.2009  0.1849
10152SOL    HW131897   0.129   6.050   3.365 -0.7858  1.3369 -1.9760
10152SOL    HW231898   0.232   6.132   3.439  0.1622  0.6018 -2.4645
10153SOL     OW31899   4.516   6.456   3.515  0.0121 -0.1886  0.1656
10153SOL    HW131900   4.553   6.529   3.465 -1.0027 -0.0833 -0.4571
10153SOL    HW231901   4.567   6.454   3.596 -0.2681  1.5385  0.4302
10154SOL     OW31902   4.280   3.987   7.260 -0.2464  0.4978  0.0524
10154SOL    HW131903   4.229   3.907   7.276  0.5566 -0.6380 -2.5116
10154SOL    HW231904   4.219   4.044   7.213 -0.5804  1.1205  1.2095
10155SOL     OW31905   6.542   7.637  12.376 -0.1222 -0.2730  0.3741
10155SOL    HW131906   6.611   7.612  12.315 -1.2321 -1.1179 -0.5867
10155SOL    HW231907   6.588   7.660  12.457  1.2817 -0.5739 -0.3099
10156SOL     OW31908   3.356   4.562   7.878  0.0125 -0.4191 -0.3310
10156SOL    HW131909   3.378   4.654   7.895 -0.4922 -0.4690  0.7056
10156SOL    HW231910   3.439   4.515   7.887  0.3277 -0.0397 -1.1603
10157SOL     OW31911   1.019   0.361   9.528 -0.1492  0.6993 -0.5951
10157SOL    HW131912   0.923   0.359   9.525 -0.1634 -0.4749  0.0242
10157SOL    HW231913   1.046   0.372   9.437 -0.8721  1.6570 -0.7070
10158SOL     OW31914   3.344   2.672   8.404  0.0530  0.1857  0.1519
10158SOL    HW131915   3.356   2.582   8.436 -0.7942 -0.4318 -1.1696
10158SOL    HW231916   3.256   2.697   8.435  0.7977  1.1060  1.6647
10159SOL     OW31917   0.903   4.698  11.838  0.1061 -0.3092  0.5597
10159SOL    HW131918   0.914   4.619  11.891  1.2173  0.1433  1.0500
10159SOL    HW231919   0.820   4.685  11.792 -0.7097 -0.8825  2.1207
10160SOL     OW31920   3.578   6.480   3.739 -0.3043  0.3587 -0.0953
10160SOL    HW131921   3.609   6.478   3.648 -0.8023  1.3486 -0.3124
10160SOL    HW231922   3.509   6.414   3.742  0.6543 -0.6568 -0.0579
10161SOL     OW31923   7.331   6.960   2.337 -0.1732  0.5153 -0.3780
10161SOL    HW131924   7.422   6.973   2.310 -0.4023  1.5375 -0.6792
10161SOL    HW231925   7.324   6.866   2.352  0.1533 -0.0507 -3.2434
10162SOL     OW31926   4.578   3.204   4.567  0.3497 -0.5031 -0.1247
10162SOL    HW131927   4.623   3.132   4.612  2.1971  0.3267 -0.5660
10162SOL    HW231928   4.628   3.282   4.591 -0.7032  0.4300 -0.8818
10163SOL     OW31929   3.176   2.011   7.556  0.0965  0.3518  0.3320
10163SOL    HW131930   3.242   2.066   7.514 -0.2128  0.6846  0.2746
10163SOL    HW231931   3.219   1.976   7.633  1.5798 -2.3625 -1.5457
10164SOL     OW31932   5.099   0.268   0.815  0.6677  0.0625  0.0175
10164SOL    HW131933   5.069   0.355   0.840  1.0042  0.3345 -0.5054
10164SOL    HW231934   5.131   0.278   0.726 -0.5373 -0.8874 -0.5539
10165SOL     OW31935   2.660   4.584   2.211  0.0686  0.1178  0.3742
10165SOL    HW131936   2.750   4.576   2.179  0.1813  0.3088  0.6323
10165SOL    HW231937   2.614   4.632   2.141 -0.7120 -2.9045 -1.3414
10166SOL     OW31938   3.187   2.518   9.874 -0.3409 -0.5659  0.5004
10166SOL    HW131939   3.209   2.438   9.826 -0.0395 -0.7521  0.9482
10166SOL    HW231940   3.271   2.555   9.900 -0.4805 -0.1415  0.3636
10167SOL     OW31941   3.912   2.281   8.592  0.0551 -0.4857 -0.3859
10167SOL    HW131942   3.822   2.252   8.600  0.2360 -1.1244 -0.6341
10167SOL    HW231943   3.961   2.226   8.653 -0.1359  1.8903  2.1118
10168SOL     OW31944   6.301   1.872   7.419  0.4153 -0.3256  0.4896
10168SOL    HW131945   6.281   1.942   7.481  0.2396  0.8971 -0.8850
10168SOL    HW231946   6.215   1.845   7.385  0.6150  0.1060 -0.3658
10169SOL     OW31947   2.429   6.421   9.921 -0.1962 -0.5073  0.1877
10169SOL    HW131948   2.338   6.443   9.941 -0.3295 -0.2815 -0.6085
10169SOL    HW231949   2.441   6.333   9.955 -0.5604 -0.3384  0.7605
10170SOL     OW31950   1.393   4.567  10.838 -0.0151 -0.0856  0.4243
10170SOL    HW131951   1.366   4.497  10.898  0.0577 -0.1618  0.3697
10170SOL    HW231952   1.331   4.638  10.853 -1.7726 -1.1258 -1.4027
10171SOL     OW31953   1.388   1.055   7.292 -0.4121 -0.1187  0.3148
10171SOL    HW131954   1.343   1.025   7.370  0.6158  0.6097  1.2168
10171SOL    HW231955   1.481   1.051   7.314 -0.0172 -1.1756 -1.3374
10172SOL     OW31956   4.134   4.084   3.972  0.2169 -0.0064  0.0624
10172SOL    HW131957   4.068   4.147   4.002  1.9207  1.1900  1.5029
10172SOL    HW231958   4.190   4.070   4.049  1.9529 -0.5616 -1.2466
10173SOL     OW31959   0.920   0.092  11.576 -0.1732  0.5022  0.3550
10173SOL    HW131960   0.944   0.010  11.534  0.4567  0.5564  0.5957
10173SOL    HW231961   0.880   0.066  11.659 -3.5671  0.2824 -1.1802
10174SOL     OW31962   6.651   6.381  11.543  0.1808 -0.0335 -0.3871
10174SOL    HW131963   6.705   6.301  11.539 -0.1874 -0.3182  0.1510
10174SOL    HW231964   6.696   6.436  11.607 -0.6937 -0.6959  0.8460
10175SOL     OW31965   3.072   7.950   9.729 -0.2724 -0.4004 -0.4556
10175SOL    HW131966   3.085   7.958   9.823  3.0493  1.6540 -0.9568
10175SOL    HW231967   3.104   7.862   9.708  2.5112  0.4376 -0.0599
10176SOL     OW31968   3.596   2.832  11.613 -0.0571  0.2274  0.0467
10176SOL    HW131969   3.529   2.764  11.618  0.5609 -0.3548  0.5998
10176SOL    HW231970   3.672   2.789  11.574  1.1324 -0.1046  2.5178
10177SOL     OW31971   1.237   4.056   2.416  0.7191 -0.8783  0.1364
10177SOL    HW131972   1.162   4.042   2.474 -2.4864 -0.1562 -3.4096
10177SOL    HW231973   1.237   4.151   2.401  1.9171 -0.9670 -0.4727
10178SOL     OW31974   7.739   0.334  11.949  1.2044 -0.4360  0.1859
10178SOL    HW131975   7.825   0.294  11.934  0.7266 -1.8921  1.1694
10178SOL    HW231976   7.677   0.262  11.941  0.0707  0.5510 -0.2722
10179SOL     OW31977   0.506   4.883   3.428 -0.2296 -0.2882 -0.3686
10179SOL    HW131978   0.544   4.971   3.437 -0.8289 -0.0440 -0.1612
10179SOL    HW231979   0.494   4.854   3.519 -1.5979  0.1123 -0.3958
10180SOL     OW31980   0.459   6.181   3.941 -0.1309 -0.1106 -0.0756
10180SOL    HW131981   0.453   6.090   3.970 -1.3580 -0.0410 -0.0912
10180SOL    HW231982   0.509   6.176   3.859  0.3834 -0.6827  0.2576
10181SOL     OW31983   6.183   5.572  11.189  0.3385  0.1975 -0.1946
10181SOL    HW131984   6.143   5.583  11.103  0.8357  0.9932 -0.3329
10181SOL    HW231985   6.110   5.549  11.246  0.0697 -0.8329 -0.9089
10182SOL     OW31986   6.300   3.653  11.879  0.4846 -0.2642  0.3276
10182SOL    HW131987   6.302   3.558  11.880  0.5008 -0.2631  0.3718
10182SOL    HW231988   6.336   3.677  11.793  1.0829 -0.2816  0.5719
10183SOL     OW31989   6.319   7.505   8.944 -0.4250  0.4544 -0.0483
10183SOL    HW131990   6.244   7.560   8.922  0.8383  1.8107 -1.1849
10183SOL    HW231991   6.394   7.551   8.907  0.8825 -1.2825  0.3111
10184SOL     OW31992   0.217   7.699  12.245  0.1243 -0.4927  0.4172
10184SOL    HW131993   0.243   7.726  12.158 -0.2294 -1.4879 -0.0177
10184SOL    HW231994   0.157   7.626  12.231  0.4734 -1.0244  1.4980
10185SOL     OW31995   5.595   1.081   2.051 -0.0906 -0.6118 -0.0167
10185SOL    HW131996   5.608   1.123   2.136 -1.0477  0.6837 -0.4690
10185SOL    HW231997   5.674   1.103   2.001  0.3015 -1.0520  0.3967
10186SOL     OW31998   1.887   4.671   8.665 -0.4525 -0.1704  0.5048
10186SOL    HW131999   1.934   4.591   8.686 -1.0428 -0.7836 -0.4485
10186SOL    HW232000   1.817   4.644   8.606  0.7057  1.3235 -1.7370
10187SOL     OW32001   7.089   7.389   4.929  1.0375  0.2222  0.0754
10187SOL    HW132002   7.046   7.457   4.877  0.0151  0.7497  1.5464
10187SOL    HW232003   7.174   7.426   4.951  0.9038  0.5846 -0.0126
10188SOL     OW32004   6.210   7.637   5.828 -0.5981 -0.0290  0.0978
10188SOL    HW132005   6.262   7.571   5.873  1.4725  0.3476 -1.5813
10188SOL    HW232006   6.213   7.612   5.736 -0.7001  1.7571 -0.4386
10189SOL     OW32007   7.371   2.090   4.744 -0.2263  0.9464  0.0387
10189SOL    HW132008   7.295   2.038   4.716  1.5662 -1.6791 -0.2808
10189SOL    HW232009   7.358   2.101   4.838 -0.3684 -0.7158  0.2540
10190SOL     OW32010   4.090   0.605   4.346 -0.6939 -0.8608 -0.0017
10190SOL    HW132011   4.023   0.671   4.360 -1.3013 -1.5420  0.3888
10190SOL    HW232012   4.097   0.598   4.250 -0.5314 -0.1527 -0.0461
10191SOL     OW32013   3.645   7.717   0.655  0.2602  0.2713 -0.4148
10191SOL    HW132014   3.630   7.784   0.587 -1.4852  0.3695  0.0132
10191SOL    HW232015   3.703   7.759   0.718  0.3481  0.8704 -0.8837
10192SOL     OW32016   2.117   5.988  10.416 -0.4168 -0.1083  0.5306
10192SOL    HW132017   2.194   5.934  10.430 -0.0720  0.8196  2.5005
10192SOL    HW232018   2.106   5.990  10.320  2.1072 -0.1039  0.1766
10193SOL     OW32019   5.283   6.016  12.138  0.4702  0.9696 -0.7825
10193SOL    HW132020   5.331   6.098  12.150  0.7286  0.5790  1.1592
10193SOL    HW232021   5.349   5.953  12.109  0.7483  0.9215 -0.0686
10194SOL     OW32022   5.378   3.259   5.349 -0.0572  0.0820  0.1230
10194SOL    HW132023   5.370   3.340   5.298  0.5955  0.0913  0.0242
10194SOL    HW232024   5.460   3.269   5.396  0.4159 -0.8524 -0.4785
10195SOL     OW32025   6.002   1.899   3.464 -0.2293  0.3565  0.3191
10195SOL    HW132026   5.991   1.971   3.527  3.3587  1.3556  0.0402
10195SOL    HW232027   6.032   1.943   3.384  0.0204 -1.2860 -0.5183
10196SOL     OW32028   2.626   1.701  11.831 -0.0984 -0.2852 -0.1383
10196SOL    HW132029   2.676   1.620  11.835 -1.8890 -1.4083  1.5853
10196SOL    HW232030   2.603   1.711  11.738 -0.0867 -1.9387 -0.3487
10197SOL     OW32031   4.977   7.789   8.635  0.1614 -0.6782 -0.0803
10197SOL    HW132032   4.908   7.727   8.660 -1.6512  1.3667  0.3434
10197SOL    HW232033   4.977   7.788   8.539  0.7846 -1.9588 -0.0784
10198SOL     OW32034   3.320   1.249   8.355 -0.3247  0.6918  0.5618
10198SOL    HW132035   3.293   1.158   8.348  1.2316  0.2399 -0.0978
10198SOL    HW232036   3.251   1.292   8.406 -0.4687 -1.1123  1.9737
10199SOL     OW32037   4.639   1.024   0.597  0.2855 -0.4035  0.3622
10199SOL    HW132038   4.693   1.058   0.525  2.2558 -0.4182  1.7505
10199SOL    HW232039   4.576   1.094   0.615  1.0225  0.4063 -0.1269
10200SOL     OW32040   6.297   1.835   1.396 -0.0294 -0.5675 -0.2124
10200SOL    HW132041   6.353   1.912   1.408  0.3929 -0.8501 -0.3316
10200SOL    HW232042   6.351   1.762   1.427 -1.2545 -0.5712  2.1564
10201SOL     OW32043   2.780   3.738   7.263  0.4068  0.0671 -0.0516
10201SOL    HW132044   2.740   3.666   7.214 -0.5129  1.4263 -1.4012
10201SOL    HW232045   2.829   3.788   7.198  0.7360  0.8667  0.7760
10202SOL     OW32046   7.243   1.398  11.598 -0.4427 -0.0367  0.5137
10202SOL    HW132047   7.318   1.367  11.649  0.2301 -0.3983 -0.6523
10202SOL    HW232048   7.167   1.357  11.638  0.1367 -0.8003  0.8400
10203SOL     OW32049   3.299   3.567   3.301 -0.6923  0.5725 -0.3885
10203SOL    HW132050   3.336   3.487   3.265  0.6839  1.5066 -1.1680
10203SOL    HW232051   3.360   3.636   3.274 -2.3941  2.0421 -0.6608
10204SOL     OW32052   1.130   5.541  10.255  0.0365  0.6884  0.2837
10204SOL    HW132053   1.063   5.542  10.187 -0.5262 -2.4028  0.6554
10204SOL    HW232054   1.212   5.553  10.208 -0.4901  0.6052 -0.6846
10205SOL     OW32055   5.252   6.015   1.437 -0.7061 -0.3214  0.6931
10205SOL    HW132056   5.210   5.968   1.365 -1.4656  0.4217  0.6291
10205SOL    HW232057   5.215   6.103   1.432  1.3599  0.5727  0.2324
10206SOL     OW32058   0.383   6.334   1.775 -0.4391  0.2734 -0.3177
10206SOL    HW132059   0.315   6.386   1.818 -1.0678 -0.8451  0.0747
10206SOL    HW232060   0.359   6.335   1.682 -0.6120  0.4301 -0.2713
10207SOL     OW32061   0.956   5.128   3.274  0.0831  0.0213  0.0230
10207SOL    HW132062   0.972   5.222   3.278 -0.7663  0.1306  1.2354
10207SOL    HW232063   1.037   5.088   3.306 -0.2767  0.4149  1.4816
10208SOL     OW32064   3.881   5.501   0.092  0.3892  0.2305  0.0851
10208SOL    HW132065   3.852   5.514   0.182  2.5087 -0.2368  0.8967
10208SOL    HW232066   3.840   5.419   0.065 -0.9058  0.7808  0.2933
10209SOL     OW32067   3.684   1.710   4.640 -0.5934 -0.2795  0.1624
10209SOL    HW132068   3.591   1.689   4.632 -0.7082  0.7064 -1.3860
10209SOL    HW232069   3.729   1.628   4.620 -1.1060 -0.8975  1.4216
10210SOL     OW32070   3.960   2.932   0.035  0.3839 -0.3090 -0.3418
10210SOL    HW132071   3.961   2.848   0.082 -1.5247 -1.4336 -2.1355
10210SOL    HW232072   3.953   2.907  -0.057 -1.0678  1.8229 -0.8717
10211SOL     OW32073   5.442   3.427   2.954 -0.0932  0.2376  0.2588
10211SOL    HW132074   5.511   3.387   2.901  0.1608 -0.2939  0.9704
10211SOL    HW232075   5.444   3.519   2.930  0.5944  0.1533 -0.0324
10212SOL     OW32076   6.808   6.062  12.426 -0.7108  0.7572  0.4444
10212SOL    HW132077   6.780   5.997  12.490  0.7144 -2.2410 -1.7734
10212SOL    HW232078   6.766   6.036  12.345  0.9461  1.8191 -0.8181
10213SOL     OW32079   5.567   3.016   0.463  0.1754 -0.3387  0.6493
10213SOL    HW132080   5.640   2.972   0.418 -0.8513 -1.5098  0.0876
10213SOL    HW232081   5.526   3.070   0.395  0.3621  0.1427  0.9111
10214SOL     OW32082   0.846   4.178   0.547  0.3464  0.6534 -0.5127
10214SOL    HW132083   0.864   4.169   0.453  0.5843 -1.3453 -0.3085
10214SOL    HW232084   0.750   4.183   0.552  0.3647  1.5533 -0.9026
10215SOL     OW32085   7.559   6.420   1.343 -0.1255 -0.1986 -0.2001
10215SOL    HW132086   7.619   6.495   1.350 -0.3952  0.0290 -0.2925
10215SOL    HW232087   7.481   6.448   1.391 -0.3138 -0.3343 -0.4275
10216SOL     OW32088   1.023   1.756   4.284  0.0208  0.0646 -0.0382
10216SOL    HW132089   1.054   1.774   4.373 -0.3192 -0.7739  0.2581
10216SOL    HW232090   1.090   1.794   4.227 -0.2281  1.4736  0.5539
10217SOL     OW32091   7.070   0.198  11.955  0.6548 -0.1361  0.1911
10217SOL    HW132092   7.010   0.264  11.922  0.7150  0.1283  0.5947
10217SOL    HW232093   7.108   0.238  12.033 -0.7844 -1.3946  1.6101
10218SOL     OW32094   4.244   7.240  10.677  0.5572  0.0895  0.0599
10218SOL    HW132095   4.257   7.307  10.744  1.1583  0.4129 -0.3665
10218SOL    HW232096   4.188   7.283  10.612 -0.1921 -0.2920  0.4541
10219SOL     OW32097   4.263   2.006   1.359  0.3578  0.3313 -0.3113
10219SOL    HW132098   4.306   1.920   1.365 -0.5766 -0.0980  0.3130
10219SOL    HW232099   4.329   2.067   1.393  1.0010 -0.1360 -0.6766
10220SOL     OW32100   4.583   2.036   7.810  0.5408  0.2592 -0.0498
10220SOL    HW132101   4.673   2.046   7.779  0.5027  1.1839  0.1118
10220SOL    HW232102   4.538   1.991   7.738  0.7317  1.3410 -0.8713
10221SOL     OW32103   3.206   3.252   2.970 -0.3718 -0.1304 -0.0664
10221SOL    HW132104   3.124   3.254   3.018 -0.5156 -1.3966 -0.2315
10221SOL    HW232105   3.209   3.165   2.930  0.2936  0.4634 -1.3857
10222SOL     OW32106   1.585   5.309   3.720 -0.3496  0.2090  0.4184
10222SOL    HW132107   1.542   5.235   3.762  0.8731 -0.2185  0.9731
10222SOL    HW232108   1.515   5.354   3.672 -1.1604 -1.1196  0.3176
10223SOL     OW32109   5.808   2.476   0.270 -0.1428  0.3530  0.2093
10223SOL    HW132110   5.740   2.439   0.325  0.0341  0.6595  0.6411
10223SOL    HW232111   5.866   2.402   0.251 -1.6150 -0.3683 -1.7856
10224SOL     OW32112   7.671   4.216   9.997  0.0380  0.3040  0.1625
10224SOL    HW132113   7.678   4.121   9.990 -1.0543  0.1017  1.4512
10224SOL    HW232114   7.745   4.243  10.052 -1.7904 -0.3225  3.1426
10225SOL     OW32115   2.396   4.942  12.019  0.2930  0.3001 -0.0006
10225SOL    HW132116   2.416   4.888  11.943  0.6749 -0.6169  0.7251
10225SOL    HW232117   2.301   4.956  12.015 -0.1876 -2.2321  0.9089
10226SOL     OW32118   2.075   4.983   4.529  0.5012 -0.2466 -0.9415
10226SOL    HW132119   2.149   4.932   4.497  0.8340 -0.0713 -0.4565
10226SOL    HW232120   2.113   5.042   4.594 -0.0889 -0.2533 -0.5912
10227SOL     OW32121   7.416   5.721   1.450  0.0632  0.1832 -0.0834
10227SOL    HW132122   7.447   5.770   1.374 -1.4570 -0.4144 -1.1515
10227SOL    HW232123   7.490   5.664   1.473  1.1577  1.5956 -0.0053
10228SOL     OW32124   1.283   1.093   1.864  0.2868  0.0701 -0.1239
10228SOL    HW132125   1.194   1.100   1.830  0.5097  0.7772 -0.5921
10228SOL    HW232126   1.336   1.143   1.802  0.4788  2.9398  2.1457
10229SOL     OW32127   3.315   5.099   5.438 -0.3372  0.0442  0.8657
10229SOL    HW132128   3.247   5.058   5.385  0.4920 -1.8667  1.1606
10229SOL    HW232129   3.278   5.182   5.466 -1.6521  0.0791 -0.8353
10230SOL     OW32130   1.759   4.157   7.416  0.6754  0.0072 -0.5546
10230SOL    HW132131   1.831   4.200   7.369  0.1433  0.9858 -0.4985
10230SOL    HW232132   1.687   4.220   7.413  0.3244 -0.2976  0.7771
10231SOL     OW32133   4.348   0.203   5.957 -0.9279  0.1869 -0.5585
10231SOL    HW132134   4.392   0.233   6.037  0.5331 -0.0132 -1.2494
10231SOL    HW232135   4.270   0.258   5.951 -0.5719  0.8423  0.5085
10232SOL     OW32136   1.897   3.927   9.516  0.4508  0.1631  0.0385
10232SOL    HW132137   1.935   3.912   9.603  1.8587 -0.9758 -0.7382
10232SOL    HW232138   1.815   3.876   9.517  0.4359  0.1881  0.6970
10233SOL     OW32139   6.313   0.078   9.485 -0.0733 -0.4578 -0.2604
10233SOL    HW132140   6.398   0.080   9.528  1.0800 -0.8735 -2.4074
10233SOL    HW232141   6.277  -0.008   9.506 -0.7899  0.2983  2.0009
10234SOL     OW32142   3.611   5.126   2.576 -0.3810 -0.5188  0.0968
10234SOL    HW132143   3.575   5.039   2.596 -0.2631 -0.1090  2.3869
10234SOL    HW232144   3.702   5.109   2.549 -0.8427 -1.1928 -1.1177
10235SOL     OW32145   0.685   6.935   6.475  0.3522  0.3365 -0.1504
10235SOL    HW132146   0.626   6.930   6.550  0.1477  0.8466 -0.2723
10235SOL    HW232147   0.702   7.029   6.465  2.4543  0.1305  0.8881
10236SOL     OW32148   4.203   5.547  12.149 -0.2966 -0.3468 -0.6468
10236SOL    HW132149   4.139   5.606  12.187  1.6347  2.2974 -1.2193
10236SOL    HW232150   4.203   5.471  12.207 -2.1884  0.6152  0.7094
10237SOL     OW32151   1.766   3.248   5.208 -0.6411 -0.4954 -0.1830
10237SOL    HW132152   1.840   3.308   5.214 -1.5230  0.6600 -0.4788
10237SOL    HW232153   1.766   3.200   5.291  1.0791 -1.3265 -0.6103
10238SOL     OW32154   2.855   0.362   7.114 -0.4646 -0.6580 -0.3816
10238SOL    HW132155   2.866   0.283   7.061  0.3592 -1.4861  0.9443
10238SOL    HW232156   2.885   0.336   7.201  0.2403  1.2634 -0.0030
10239SOL     OW32157   3.004   3.903   9.671 -0.1262 -0.6957  0.2573
10239SOL    HW132158   2.968   3.823   9.711 -1.4654 -0.9717 -1.3920
10239SOL    HW232159   2.931   3.964   9.672  0.6791  0.2873  0.8184
10240SOL     OW32160   7.529   0.023   7.403  0.0547  0.4940  0.1341
10240SOL    HW132161   7.551   0.070   7.484  1.3615 -0.5355  0.4143
10240SOL    HW232162   7.497  -0.062   7.432  0.0537  0.3009 -0.4238
10241SOL     OW32163   4.027   0.463   3.450 -0.1315  0.7036 -0.5553
10241SOL    HW132164   3.967   0.538   3.446  0.7638  1.4390 -0.4247
10241SOL    HW232165   4.105   0.497   3.493 -1.0157 -1.1797  3.0243
10242SOL     OW32166   7.508   4.004   3.356  0.0086 -0.5417 -0.3063
10242SOL    HW132167   7.449   4.060   3.406  0.0495 -0.2721 -0.5521
10242SOL    HW232168   7.585   4.060   3.339  1.0233 -1.3661  1.3352
10243SOL     OW32169   5.089   3.925   1.763 -0.2611 -0.5387  0.0057
10243SOL    HW132170   5.101   3.839   1.802 -0.7743 -0.2947  0.7164
10243SOL    HW232171   5.158   3.931   1.697  1.1206 -0.6565  1.3911
10244SOL     OW32172   4.636   3.838   7.390  0.1481 -0.3038 -0.1421
10244SOL    HW132173   4.566   3.847   7.454 -2.8097 -0.6320 -3.0689
10244SOL    HW232174   4.624   3.750   7.354  0.5110  0.4865 -2.3291
10245SOL     OW32175   0.842   0.722   3.912 -0.5221 -0.4686  0.0816
10245SOL    HW132176   0.776   0.779   3.952 -2.2870 -1.3338 -1.4125
10245SOL    HW232177   0.925   0.765   3.930 -1.4043  0.4277  2.4867
10246SOL     OW32178   6.094   1.299   9.210 -0.1969 -0.6534  0.4587
10246SOL    HW132179   6.149   1.232   9.251 -0.5567 -0.7617  0.7761
10246SOL    HW232180   6.066   1.259   9.127  0.3575 -0.5176  0.1969
10247SOL     OW32181   4.219   6.951   2.312  0.7000 -0.0821  0.5428
10247SOL    HW132182   4.193   7.040   2.290  0.2156 -0.2421  0.4570
10247SOL    HW232183   4.207   6.902   2.230  0.6919 -0.2837  0.6643
10248SOL     OW32184   5.580   5.365  11.440  0.2727  0.6398 -0.0124
10248SOL    HW132185   5.528   5.334  11.514  1.6615  0.8986  1.1289
10248SOL    HW232186   5.566   5.460  11.439  1.4989  0.8585  0.9768
10249SOL     OW32187   4.392   5.114  11.184  0.1498 -0.2523  0.4176
10249SOL    HW132188   4.452   5.064  11.128 -1.7063  0.1195 -2.1199
10249SOL    HW232189   4.394   5.202  11.147 -0.7456  0.1631  1.3330
10250SOL     OW32190   3.749   1.063   8.666 -0.2038  0.2073 -0.0135
10250SOL    HW132191   3.703   0.982   8.642 -2.2946  0.6939  1.9716
10250SOL    HW232192   3.680   1.128   8.676  1.1845  1.6341  0.7991
10251SOL     OW32193   1.945   4.021   5.332  0.0570 -0.3325 -0.5433
10251SOL    HW132194   1.855   4.021   5.299 -0.0512  0.5330 -0.2593
10251SOL    HW232195   1.948   3.946   5.392 -1.1750  0.9610  1.2443
10252SOL     OW32196   0.118   4.388   4.045 -0.2433 -0.3110  0.7665
10252SOL    HW132197   0.067   4.336   4.107 -0.6146 -0.9690 -0.0737
10252SOL    HW232198   0.196   4.336   4.029 -1.1627 -1.2523 -1.0025
10253SOL     OW32199   5.833   6.268   5.434  0.1028 -0.2530 -0.0193
10253SOL    HW132200   5.766   6.310   5.487 -0.3449  1.1246 -1.6112
10253SOL    HW232201   5.900   6.335   5.422 -0.7916  0.2631 -2.9002
10254SOL     OW32202   5.880   3.681   3.248  0.7544  0.7672 -0.2436
10254SOL    HW132203   5.893   3.690   3.153  2.1849  0.7672 -0.0740
10254SOL    HW232204   5.873   3.587   3.262  2.1489  0.6374 -0.2038
10255SOL     OW32205   2.097   3.722   9.598 -0.3819  0.3908  0.4794
10255SOL    HW132206   2.137   3.640   9.570  2.7943  0.9511  2.7135
10255SOL    HW232207   2.063   3.762   9.518  0.0523 -2.0203 -0.9965
10256SOL     OW32208   6.812   2.311   9.807  0.3323 -0.0947  0.4586
10256SOL    HW132209   6.818   2.278   9.896  0.4790 -0.2444  0.3954
10256SOL    HW232210   6.892   2.363   9.795  0.8148 -0.8977  0.0873
10257SOL     OW32211   6.988   2.545   3.371 -0.1014  0.2389 -0.0164
10257SOL    HW132212   6.990   2.496   3.453 -1.5736 -0.8802 -0.6030
10257SOL    HW232213   7.013   2.481   3.304 -1.1006  0.5376 -0.6929
10258SOL     OW32214   3.663   4.660  12.198 -0.0398  0.8137  0.2534
10258SOL    HW132215   3.573   4.676  12.227 -0.5028  1.3334 -1.3748
10258SOL    HW232216   3.667   4.699  12.111  1.9601  1.3437  0.5531
10259SOL     OW32217   5.320   0.436   7.181 -0.1025 -0.4202  0.5852
10259SOL    HW132218   5.257   0.425   7.110  3.1277  1.5344 -2.9835
10259SOL    HW232219   5.371   0.355   7.181  0.6291  0.0139 -0.2653
10260SOL     OW32220   2.578   4.496   7.631  0.0839  0.5074  0.3492
10260SOL    HW132221   2.498   4.456   7.667 -1.1163  2.0024 -0.5320
10260SOL    HW232222   2.589   4.576   7.683 -1.5551  2.6013 -2.2315
10261SOL     OW32223   5.879   6.321   1.310  0.0398  0.1831 -0.0703
10261SOL    HW132224   5.901   6.296   1.220 -2.9303  0.1784 -0.9144
10261SOL    HW232225   5.858   6.414   1.303 -2.3968 -0.2959  0.0621
10262SOL     OW32226   1.011   7.232   9.711  1.1021 -0.7322  0.0882
10262SOL    HW132227   0.944   7.164   9.702 -0.3021  0.3314  1.9178
10262SOL    HW232228   0.972   7.309   9.669  2.8259 -1.0443 -2.3041
10263SOL     OW32229   6.908   4.495  10.037  0.0358 -0.7789 -0.7848
10263SOL    HW132230   6.907   4.582  10.077  1.5142 -0.7969 -0.6462
10263SOL    HW232231   6.896   4.435  10.110 -0.9494 -0.7019 -0.8759
10264SOL     OW32232   2.885   0.737   8.794 -0.6209 -0.0741  0.5880
10264SOL    HW132233   2.894   0.690   8.712 -0.8863  0.5732  0.1788
10264SOL    HW232234   2.949   0.808   8.788 -1.2726  0.5197  0.5467
10265SOL     OW32235   6.009   1.897   0.533 -0.3482 -0.3302 -0.0053
10265SOL    HW132236   6.022   1.803   0.536  0.1938 -0.2859 -0.5424
10265SOL    HW232237   6.001   1.917   0.440 -0.1112  0.1906  0.0801
10266SOL     OW32238   2.441   6.821   8.587 -0.3991 -0.2205 -0.0454
10266SOL    HW132239   2.368   6.811   8.525  0.2976  1.2982 -1.1961
10266SOL    HW232240   2.441   6.741   8.638 -2.0273 -0.8317 -0.9422
10267SOL     OW32241   7.743   0.448   6.384  0.3353 -0.2535  0.3167
10267SOL    HW132242   7.709   0.426   6.471  0.1510  1.5085  0.7140
10267SOL    HW232243   7.805   0.518   6.400  0.0919  0.2841 -1.0111
10268SOL     OW32244   3.493   4.595   4.473 -0.0499  0.3788 -0.0835
10268SOL    HW132245   3.547   4.616   4.396 -0.1629 -0.5165 -0.4179
10268SOL    HW232246   3.406   4.580   4.437  0.2853 -1.9750 -0.0742
10269SOL     OW32247   4.068   1.142   8.251 -0.0419 -0.2009  0.2818
10269SOL    HW132248   4.052   1.232   8.281  0.4289  0.1169 -0.3957
10269SOL    HW232249   3.987   1.095   8.270  0.2294 -0.0161  2.0420
10270SOL     OW32250   3.234   4.515   2.710 -0.0473 -0.2220  0.3663
10270SOL    HW132251   3.281   4.530   2.628 -0.1964 -0.3118  0.2638
10270SOL    HW232252   3.141   4.526   2.687 -0.1062 -0.4848  0.4667
10271SOL     OW32253   6.105   6.532   0.969 -0.2099  0.5204  0.1423
10271SOL    HW132254   6.137   6.483   1.044 -1.4207 -1.1627 -0.3935
10271SOL    HW232255   6.101   6.623   1.000 -0.6354 -0.1166  2.0956
10272SOL     OW32256   6.977   5.697   8.073 -0.4446  0.1936 -0.1943
10272SOL    HW132257   6.925   5.777   8.082  2.7210  2.4076 -0.0251
10272SOL    HW232258   7.006   5.697   7.982  0.1913 -0.3470 -0.0019
10273SOL     OW32259   6.157   5.377   2.428  0.2257 -0.5344  0.1919
10273SOL    HW132260   6.183   5.296   2.385  1.0086 -0.8187  1.1728
10273SOL    HW232261   6.141   5.352   2.519 -0.8287  0.1694  0.2225
10274SOL     OW32262   5.931   3.485   8.940 -0.1679  0.3322  0.2248
10274SOL    HW132263   5.921   3.419   9.008 -0.2746  1.0614  0.9303
10274SOL    HW232264   6.019   3.472   8.906  1.0849  1.8974  2.6214
10275SOL     OW32265   1.654   5.384   9.326  0.4901  0.3309 -0.2903
10275SOL    HW132266   1.738   5.371   9.370 -0.3674  0.3859  1.4431
10275SOL    HW232267   1.648   5.310   9.264  2.5716  1.3136 -1.7997
10276SOL     OW32268   3.628   7.291   0.448  0.3386 -0.3383  0.0310
10276SOL    HW132269   3.581   7.370   0.475  1.0181  0.2258 -0.3754
10276SOL    HW232270   3.713   7.298   0.492  0.9486 -0.0926 -1.1219
10277SOL     OW32271   4.936   1.147   1.920 -0.1322 -0.3732 -0.2598
10277SOL    HW132272   4.941   1.113   1.830  2.7162  1.6504 -1.0305
10277SOL    HW232273   4.864   1.211   1.917  0.4642  0.2878 -1.4092
10278SOL     OW32274   2.276   3.307   2.963  0.6153  0.0735 -0.0333
10278SOL    HW132275   2.281   3.213   2.950  0.5069  0.3375 -2.4852
10278SOL    HW232276   2.182   3.327   2.960  0.7319  0.4722 -1.6794
10279SOL     OW32277   4.110   6.512   9.867 -0.7112  0.1139  0.5523
10279SOL    HW132278   4.037   6.467   9.823  0.7749 -0.9748 -0.9285
10279SOL    HW232279   4.149   6.567   9.800  0.8105 -0.5669  0.8322
10280SOL     OW32280   5.299   4.220   8.789 -0.1966  0.0132 -0.5910
10280SOL    HW132281   5.359   4.160   8.745 -1.6875 -1.0228 -1.2812
10280SOL    HW232282   5.264   4.275   8.718  0.7089  1.3291 -0.0471
10281SOL     OW32283   0.395   0.841   4.683  0.0360  0.0317 -0.1351
10281SOL    HW132284   0.314   0.874   4.644 -0.8494 -0.2256  1.4068
10281SOL    HW232285   0.464   0.890   4.639 -1.0916  2.0379  0.1969
10282SOL     OW32286   2.685   1.705  10.506 -0.1163 -0.0632 -0.2835
10282SOL    HW132287   2.772   1.733  10.534  0.4318 -1.2180 -0.7198
10282SOL    HW232288   2.638   1.685  10.587  1.1409 -2.5038 -0.0338
10283SOL     OW32289   4.765   5.533   8.695  0.5749  0.1764  0.0324
10283SOL    HW132290   4.851   5.512   8.659  0.9476 -0.9465  1.4385
10283SOL    HW232291   4.706   5.534   8.620  1.6161 -0.2222 -0.8127
10284SOL     OW32292   7.626   5.952  10.266  0.1013 -0.5533  0.0156
10284SOL    HW132293   7.580   6.019  10.316  0.8783 -0.8413  1.1438
10284SOL    HW232294   7.646   5.883  10.329  1.2726 -0.8439 -0.6404
10285SOL     OW32295   2.946   4.832   6.250  0.2414 -0.0208  0.0568
10285SOL    HW132296   2.914   4.819   6.340  2.7442 -1.0443  0.8911
10285SOL    HW232297   3.010   4.903   6.259  0.1906  0.1646 -1.0126
10286SOL     OW32298   4.287   7.080   8.421 -0.3604  0.2315 -0.3266
10286SOL    HW132299   4.201   7.115   8.397 -0.3618 -0.4719 -1.4131
10286SOL    HW232300   4.268   6.995   8.460 -0.4024  1.5592  2.8369
10287SOL     OW32301   1.538   5.128   4.922  0.8408 -0.1906 -0.3273
10287SOL    HW132302   1.532   5.083   5.007 -3.9657  2.5739  1.1487
10287SOL    HW232303   1.493   5.070   4.861  1.5843 -0.7990 -0.3144
10288SOL     OW32304   5.517   2.091   9.603 -0.1263 -0.1689  0.4021
10288SOL    HW132305   5.508   2.054   9.515  0.0243  0.0758  0.2852
10288SOL    HW232306   5.426   2.101   9.633 -0.2090  0.5794 -0.0737
10289SOL     OW32307   6.093   6.600   4.349 -0.1123  0.1609  0.0279
10289SOL    HW132308   6.090   6.657   4.427 -0.4354 -0.4137  0.4426
10289SOL    HW232309   6.185   6.575   4.342 -0.3248 -1.0965  1.2087
10290SOL     OW32310   2.333   1.553   2.862  0.2921  0.3300 -0.1888
10290SOL    HW132311   2.378   1.515   2.937 -1.7704 -1.7138  0.1137
10290SOL    HW232312   2.257   1.598   2.900  2.0774  4.0819 -0.6404
10291SOL     OW32313   7.264   4.791   0.939 -0.2347  0.1640 -0.5086
10291SOL    HW132314   7.223   4.737   1.007  2.2862 -1.5000 -0.1858
10291SOL    HW232315   7.214   4.771   0.860 -0.0560 -1.8627 -0.1652
10292SOL     OW32316   0.039   0.616  12.295  0.0710  0.3807 -0.0553
10292SOL    HW132317   0.080   0.535  12.326 -1.2557 -0.5156 -0.5389
10292SOL    HW232318   0.103   0.685  12.315  0.6918 -0.5981  1.5255
10293SOL     OW32319   7.213   4.437   7.571 -0.3473  0.5729  0.7242
10293SOL    HW132320   7.132   4.477   7.601 -1.4723 -1.6304  0.8362
10293SOL    HW232321   7.246   4.390   7.648  0.1194  0.0275  0.1974
10294SOL     OW32322   7.096   7.939   4.520 -0.3592 -0.0937  0.2424
10294SOL    HW132323   7.095   8.011   4.584  0.2684 -1.3475  1.7298
10294SOL    HW232324   7.170   7.959   4.463 -0.4312  0.6425  0.3917
10295SOL     OW32325   2.681   1.958   4.996  0.5819  0.5185  0.6377
10295SOL    HW132326   2.724   1.873   5.005 -0.1440  0.2477  1.6578
10295SOL    HW232327   2.645   1.976   5.083 -2.5143  0.1291 -0.4542
10296SOL     OW32328   1.790   4.514   6.915 -0.1723 -0.0786  0.3430
10296SOL    HW132329   1.815   4.422   6.902  1.4585  0.3881 -0.1505
10296SOL    HW232330   1.817   4.557   6.834 -1.5221  0.7347  0.3108
10297SOL     OW32331   0.673   0.274   8.901  0.0104 -0.4241 -0.0481
10297SOL    HW132332   0.690   0.247   8.811 -1.0931 -0.5924 -0.2236
10297SOL    HW232333   0.717   0.208   8.955  1.7691  0.3824 -0.4234
10298SOL     OW32334   1.298   5.398   1.736  0.2589 -0.6073  0.0153
10298SOL    HW132335   1.228   5.460   1.756  0.1013 -0.8359  0.1725
10298SOL    HW232336   1.292   5.331   1.804  1.9213  0.4224  1.2694
10299SOL     OW32337   1.164   5.699   8.764 -0.4431 -0.4472  0.2259
10299SOL    HW132338   1.189   5.720   8.854 -1.3265 -2.0611  0.8891
10299SOL    HW232339   1.121   5.613   8.771 -0.2966 -0.7166 -1.7710
10300SOL     OW32340   2.546   0.134  11.013  0.0030 -0.3519 -0.0880
10300SOL    HW132341   2.472   0.101  11.063  0.1371 -0.6927 -0.1097
10300SOL    HW232342   2.622   0.113  11.067  0.1505 -0.7402 -0.4426
10301SOL     OW32343   0.562   4.571  10.213 -0.0595 -0.1634 -0.3256
10301SOL    HW132344   0.510   4.600  10.137  2.7279  0.5169 -2.1643
10301SOL    HW232345   0.573   4.650  10.266 -0.2832 -0.1250 -0.3385
10302SOL     OW32346   4.010   3.389   5.737 -0.4171  0.1447  0.9976
10302SOL    HW132347   4.068   3.452   5.780 -1.2133  0.1625  2.0913
10302SOL    HW232348   4.070   3.327   5.695  0.4153  0.2129  2.0196
10303SOL     OW32349   0.664   1.333   4.204  0.1657  0.0229 -0.5843
10303SOL    HW132350   0.667   1.427   4.218  0.7677 -0.0831  0.0707
10303SOL    HW232351   0.736   1.316   4.143 -1.6973  0.3258 -3.0262
10304SOL     OW32352   2.252   3.565  10.450  0.4333 -0.0759  0.3034
10304SOL    HW132353   2.281   3.652  10.479  1.1010 -0.0433 -0.4283
10304SOL    HW232354   2.173   3.582  10.398 -0.1917 -0.0424  1.2378
10305SOL     OW32355   7.747   2.721   0.278 -0.0553  0.0627  0.0940
10305SOL    HW132356   7.818   2.699   0.338 -1.1160  0.0172  1.3708
10305SOL    HW232357   7.779   2.692   0.192  1.0124 -0.9729  0.8042
10306SOL     OW32358   5.785   7.756  11.736  0.1789 -0.6799 -0.6315
10306SOL    HW132359   5.799   7.696  11.810  1.6568  1.2447  0.7625
10306SOL    HW232360   5.703   7.800  11.757 -1.1275 -2.3614 -1.8621
10307SOL     OW32361   4.221   6.276   5.852 -0.5963  0.0577 -0.6197
10307SOL    HW132362   4.314   6.255   5.840 -0.9203 -1.8128 -0.1190
10307SOL    HW232363   4.178   6.191   5.859 -2.2749  0.9068 -0.2014
10308SOL     OW32364   3.090   4.460   3.980 -0.2632 -0.3065 -0.2873
10308SOL    HW132365   3.168   4.408   3.958 -0.3060 -0.1390 -0.8352
10308SOL    HW232366   3.115   4.550   3.959 -0.5382 -0.2267 -0.2679
10309SOL     OW32367   6.053   0.361   0.064  0.3516 -0.3096  0.2526
10309SOL    HW132368   6.011   0.321  -0.012 -0.5154 -0.8139  0.9820
10309SOL    HW232369   6.147   0.343   0.051  0.1295 -1.1802 -0.2421
10310SOL     OW32370   7.724   3.748   7.778 -0.1113  0.1613  0.8014
10310SOL    HW132371   7.698   3.834   7.813  1.4278  0.6786  0.7779
10310SOL    HW232372   7.751   3.767   7.688  1.1117 -0.1463  1.0795
10311SOL     OW32373   3.838   6.474   3.800  0.0570 -0.2694 -0.2352
10311SOL    HW132374   3.742   6.481   3.802  0.1602  1.1887  1.1128
10311SOL    HW232375   3.862   6.456   3.891  1.1599  1.2470 -0.1922
10312SOL     OW32376   1.381   1.292   4.891  0.2795 -0.0879  0.4453
10312SOL    HW132377   1.471   1.313   4.866  0.1972  2.5074  1.8929
10312SOL    HW232378   1.388   1.258   4.980 -0.1698  0.3536  0.6556
10313SOL     OW32379   4.195   4.055   5.101 -0.0827  0.0005  0.1657
10313SOL    HW132380   4.261   4.122   5.081 -0.8975  0.8391  0.2379
10313SOL    HW232381   4.126   4.102   5.147 -2.2126 -0.1666 -2.5803
10314SOL     OW32382   1.865   4.795  10.438 -0.5788 -0.2607  0.4703
10314SOL    HW132383   1.903   4.744  10.367 -0.6731 -0.3930  0.5144
10314SOL    HW232384   1.864   4.735  10.513  1.7630  0.6121  1.2777
10315SOL     OW32385   7.725   4.791   1.546 -0.0018 -0.2371  0.1942
10315SOL    HW132386   7.807   4.757   1.580  0.2805  0.1503 -0.0874
10315SOL    HW232387   7.683   4.716   1.504 -0.8353 -0.9765  2.2557
10316SOL     OW32388   0.874   0.190   5.040  0.0094 -0.2393  0.4468
10316SOL    HW132389   0.881   0.095   5.032 -0.7399 -0.3365  0.8911
10316SOL    HW232390   0.935   0.224   4.974 -1.4542 -1.0280 -1.4157
10317SOL     OW32391   3.896   6.745  11.740  0.2161  0.3937 -0.2138
10317SOL    HW132392   3.984   6.707  11.733  0.0663  0.2984 -1.8586
10317SOL    HW232393   3.837   6.672  11.724 -0.0999  0.9230 -1.6483
10318SOL     OW32394   1.725   1.996   9.424 -0.0935 -0.1578 -0.1383
10318SOL    HW132395   1.726   1.903   9.448  3.0245  0.0166  0.8377
10318SOL    HW232396   1.817   2.022   9.427 -0.8720  2.9654 -0.5201
10319SOL     OW32397   1.246   4.926  10.413  0.6194 -0.1813 -0.1223
10319SOL    HW132398   1.172   4.883  10.456  0.6422 -0.2104 -0.1122
10319SOL    HW232399   1.321   4.904  10.468  0.4098  1.1243  0.7644
10320SOL     OW32400   6.042   1.859   9.558  0.1545 -0.0028  0.7524
10320SOL    HW132401   5.980   1.921   9.594 -0.2165  0.5202 -0.7232
10320SOL    HW232402   6.045   1.879   9.464  0.6378 -1.6696  0.3753
10321SOL     OW32403   0.554   0.114   1.688 -0.7550  0.4938 -0.2254
10321SOL    HW132404   0.603   0.138   1.609 -1.1122  1.3170 -0.2059
10321SOL    HW232405   0.600   0.037   1.722 -1.5393 -0.8897 -2.1093
10322SOL     OW32406   0.650   2.668   9.481  0.0440  0.0323 -0.0229
10322SOL    HW132407   0.717   2.734   9.496 -0.6551  0.4865  1.1909
10322SOL    HW232408   0.682   2.618   9.405  2.0709 -0.1934  0.9204
10323SOL     OW32409   5.361   1.484   6.744  0.2777  0.0498  0.1146
10323SOL    HW132410   5.406   1.528   6.817  1.4021  0.8725 -1.0136
10323SOL    HW232411   5.284   1.538   6.727  0.2082  0.0595  0.4534
10324SOL     OW32412   7.881   6.186   1.981 -0.4185 -0.2243  0.5006
10324SOL    HW132413   7.856   6.184   2.074 -1.3847 -0.0623  0.2577
10324SOL    HW232414   7.808   6.230   1.938 -0.7315 -1.6913 -0.5576
10325SOL     OW32415   6.899   7.453  10.292  0.1444  0.2052  0.3062
10325SOL    HW132416   6.912   7.459  10.197 -1.2272  0.0809  0.0913
10325SOL    HW232417   6.973   7.401  10.323 -0.0368 -0.7951 -0.8689
10326SOL     OW32418   5.809   5.697   7.904  0.2992 -0.6856 -0.3710
10326SOL    HW132419   5.741   5.738   7.851 -0.8046 -0.6278  1.0107
10326SOL    HW232420   5.864   5.769   7.933  1.1142 -0.7571 -1.6761
10327SOL     OW32421   7.551   5.861   0.939 -0.1033 -0.7880  0.5098
10327SOL    HW132422   7.480   5.858   0.874  0.0018  0.4164  0.3181
10327SOL    HW232423   7.535   5.785   0.995 -1.5034 -0.5863  0.4272
10328SOL     OW32424   4.095   0.122   9.735 -0.2193 -0.6328  0.9249
10328SOL    HW132425   4.177   0.128   9.688 -0.8776  0.4528 -0.1453
10328SOL    HW232426   4.103   0.186   9.806 -0.7300  0.7164 -0.1809
10329SOL     OW32427   2.168   2.296   1.169  0.5053 -0.2752 -0.3469
10329SOL    HW132428   2.244   2.247   1.199 -0.3859 -0.0706  2.4920
10329SOL    HW232429   2.108   2.230   1.134  1.3681 -0.5864 -1.2690
10330SOL     OW32430   0.478   0.317  12.177  0.2272 -0.5835 -0.3419
10330SOL    HW132431   0.495   0.409  12.155 -0.0981  0.0476  1.8002
10330SOL    HW232432   0.420   0.287  12.108 -1.1046  1.3775 -0.1675
10331SOL     OW32433   1.873   5.510   4.329 -0.1816 -0.7835  0.5840
10331SOL    HW132434   1.921   5.429   4.319  0.6216 -0.1029 -1.6651
10331SOL    HW232435   1.926   5.576   4.284 -2.4755  0.2864 -0.7587
10332SOL     OW32436   7.200   2.572   6.054  0.0048 -0.0036  0.2518
10332SOL    HW132437   7.288   2.537   6.064  0.2380  0.5787  0.2756
10332SOL    HW232438   7.146   2.496   6.033  0.4834 -0.3869  0.3981
10333SOL     OW32439   4.696   2.369  11.394  0.4933 -0.6449 -0.3064
10333SOL    HW132440   4.711   2.385  11.301 -0.1441  0.3090 -0.2613
10333SOL    HW232441   4.746   2.289  11.413  0.8290 -0.7152 -1.4024
10334SOL     OW32442   4.045   1.477   7.874 -0.1673  0.4307  0.2140
10334SOL    HW132443   4.001   1.440   7.798  0.2960 -1.3420  0.7589
10334SOL    HW232444   4.019   1.420   7.947  0.3994  1.3290  1.1427
10335SOL     OW32445   3.296   3.767   8.868  0.4614 -0.1880 -0.0105
10335SOL    HW132446   3.304   3.859   8.892  0.9067 -0.6646  1.8750
10335SOL    HW232447   3.386   3.735   8.865  0.3255 -0.4969 -0.9641
10336SOL     OW32448   1.516   7.403   0.779 -0.4006 -0.2516 -0.4300
10336SOL    HW132449   1.605   7.387   0.747 -0.5409  1.0311 -1.5696
10336SOL    HW232450   1.473   7.317   0.774  0.2963 -0.5604 -1.4495
10337SOL     OW32451   1.268   3.131   5.190 -0.2394  0.0843 -0.3067
10337SOL    HW132452   1.232   3.085   5.114  0.7515 -3.7464  1.2978
10337SOL    HW232453   1.363   3.123   5.180 -0.0573 -1.8723  1.8972
10338SOL     OW32454   2.681   5.499   0.948  0.2244 -0.1663  0.0808
10338SOL    HW132455   2.762   5.476   0.901  1.1615  2.1992  0.4328
10338SOL    HW232456   2.678   5.437   1.020  1.4385 -0.6548 -0.2460
10339SOL     OW32457   6.364   1.212   1.662 -0.4193  0.0399 -0.4749
10339SOL    HW132458   6.287   1.267   1.672 -1.3335 -1.0041 -1.5367
10339SOL    HW232459   6.438   1.272   1.668 -1.3970  1.6570 -3.0591
10340SOL     OW32460   7.900   5.230  10.901 -0.5092  0.0404 -0.6369
10340SOL    HW132461   7.912   5.164  10.969 -0.6899 -0.7062 -1.3025
10340SOL    HW232462   7.846   5.297  10.941 -2.1700 -1.2560 -0.5617
10341SOL     OW32463   5.660   4.691   2.332 -0.3924  0.3594 -0.5156
10341SOL    HW132464   5.685   4.778   2.364 -0.6799  0.0002  0.7408
10341SOL    HW232465   5.623   4.708   2.245 -0.0768  1.4453 -0.4576
10342SOL     OW32466   0.949   2.472   4.141  0.0782  0.3378 -0.2261
10342SOL    HW132467   0.860   2.439   4.153 -0.0092  1.1733  1.9694
10342SOL    HW232468   0.940   2.567   4.145  0.9414  0.4886 -1.2986
10343SOL     OW32469   2.828   2.384   4.532 -0.0695  0.0117 -0.2947
10343SOL    HW132470   2.737   2.368   4.557  0.6483 -3.5221  0.5917
10343SOL    HW232471   2.864   2.438   4.603 -0.3599 -2.5298  1.9550
10344SOL     OW32472   0.483   7.463   1.031 -0.6548  0.7657  0.0596
10344SOL    HW132473   0.518   7.450   0.943  1.9003  0.8211  0.9946
10344SOL    HW232474   0.544   7.417   1.088 -1.3102  2.1176  1.9427
10345SOL     OW32475   2.091   4.170   4.393 -0.5844  0.1915 -0.1585
10345SOL    HW132476   2.061   4.093   4.441 -1.0733 -0.0892 -0.8981
10345SOL    HW232477   2.014   4.201   4.346 -0.5046  1.4209  0.4958
10346SOL     OW32478   3.758   0.935  10.568  0.1218 -0.2787 -0.1066
10346SOL    HW132479   3.813   1.007  10.540 -0.0687  0.1896  0.6960
10346SOL    HW232480   3.735   0.889  10.487  1.3021 -0.2164 -0.4934
10347SOL     OW32481   5.547   0.654   8.640 -0.1757  0.1008 -0.2818
10347SOL    HW132482   5.574   0.685   8.727 -0.4935 -0.2217 -0.0677
10347SOL    HW232483   5.455   0.678   8.633 -0.4665 -0.9266 -0.0529
10348SOL     OW32484   1.170   2.291   2.230  0.1009 -0.3424  0.3159
10348SOL    HW132485   1.203   2.380   2.242  0.4421 -0.6509  1.7127
10348SOL    HW232486   1.190   2.271   2.138 -1.0818  1.4565 -0.3992
10349SOL     OW32487   7.045   2.339   3.929 -0.2712 -0.3203 -0.1574
10349SOL    HW132488   7.100   2.288   3.988  0.3057  1.1879  0.6549
10349SOL    HW232489   7.086   2.425   3.926 -0.8345 -0.0821 -2.0305
10350SOL     OW32490   7.811   6.352   9.239  0.0652  0.8130  0.0819
10350SOL    HW132491   7.857   6.393   9.313  1.5990  0.2681 -0.5272
10350SOL    HW232492   7.799   6.261   9.266  0.9023  0.5348 -0.4227
10351SOL     OW32493   2.232   3.606   5.905  0.7456  0.1170  0.9064
10351SOL    HW132494   2.218   3.513   5.924  1.6857 -0.0488  0.8736
10351SOL    HW232495   2.169   3.652   5.959  0.0735 -0.5522  0.7151
10352SOL     OW32496   6.072   3.007  10.216 -0.1061  0.0180 -0.4469
10352SOL    HW132497   6.130   3.064  10.266  0.4261 -1.0484  0.1616
10352SOL    HW232498   6.061   3.053  10.132 -0.9817  1.8102  0.5758
10353SOL     OW32499   1.274   0.552   5.790  0.2963 -0.2549 -0.7838
10353SOL    HW132500   1.231   0.618   5.846 -0.1344 -1.0114 -0.1991
10353SOL    HW232501   1.257   0.582   5.701  0.8804  0.9076 -0.5313
10354SOL     OW32502   5.066   2.518  11.580  0.1841 -0.1780  0.5301
10354SOL    HW132503   5.121   2.593  11.554  0.3403 -0.7337 -0.8529
10354SOL    HW232504   4.980   2.557  11.598 -0.2815  0.1832 -2.0371
10355SOL     OW32505   2.231   3.081   7.135 -0.2813 -0.5711 -0.4917
10355SOL    HW132506   2.217   3.175   7.128 -1.4550 -0.7468 -0.7401
10355SOL    HW232507   2.159   3.050   7.190 -0.1179 -1.3767 -0.7144
10356SOL     OW32508   2.997   2.377   5.192 -0.2494 -0.3613 -0.2879
10356SOL    HW132509   3.041   2.371   5.277 -1.0939  0.2003  0.2067
10356SOL    HW232510   3.022   2.463   5.158 -1.7195  0.3958  0.4550
10357SOL     OW32511   4.833   4.431   0.492 -0.0362  0.4906  0.5637
10357SOL    HW132512   4.776   4.505   0.514 -0.4473  0.3995 -0.1538
10357SOL    HW232513   4.869   4.402   0.576 -1.4094  0.2553  1.1004
10358SOL     OW32514   0.484   3.003   5.104  0.0086  0.2845  0.0340
10358SOL    HW132515   0.481   2.915   5.066 -2.5025  0.2389  0.1613
10358SOL    HW232516   0.483   2.988   5.198 -1.4079  0.3913  0.0665
10359SOL     OW32517   1.003   1.844   0.739 -0.2344  0.0940  0.4684
10359SOL    HW132518   0.961   1.930   0.735 -2.3360 -0.8267  1.2068
10359SOL    HW232519   0.976   1.800   0.658  0.7740  0.0755  0.1249
10360SOL     OW32520   4.685   3.330   1.426 -0.3561  0.2178 -0.2334
10360SOL    HW132521   4.706   3.423   1.415  0.4597  0.0886  0.1879
10360SOL    HW232522   4.601   3.330   1.474  0.1219  0.7414  0.6278
10361SOL     OW32523   3.173   1.907   0.598 -0.5253 -0.5838  0.1392
10361SOL    HW132524   3.146   1.993   0.565  0.0686  0.7406  2.8332
10361SOL    HW232525   3.265   1.899   0.574 -0.2714  0.0821  0.8525
10362SOL     OW32526   2.418   1.907   1.855 -0.4353 -0.0658  0.4389
10362SOL    HW132527   2.325   1.924   1.870 -0.6243 -0.0029 -0.6916
10362SOL    HW232528   2.429   1.915   1.760  0.6329 -0.5482  0.5035
10363SOL     OW32529   4.725   5.939   1.653  0.2627  0.5290 -0.3331
10363SOL    HW132530   4.683   5.971   1.733 -1.5668  1.7701 -1.7458
10363SOL    HW232531   4.704   5.846   1.651  1.0375  0.2890  1.0174
10364SOL     OW32532   6.701   5.851   7.270 -0.9835 -0.4159 -0.5774
10364SOL    HW132533   6.714   5.941   7.299 -2.0345 -0.3282 -0.3276
10364SOL    HW232534   6.686   5.858   7.176  1.3790 -0.5987 -1.0298
10365SOL     OW32535   3.641   2.720   1.711  0.3516  0.0249  0.3685
10365SOL    HW132536   3.666   2.654   1.776 -0.2523  0.0476  0.6306
10365SOL    HW232537   3.716   2.779   1.706  0.1660  0.3643  1.4885
10366SOL     OW32538   0.986   7.797   5.786  0.0330  0.0972  0.5835
10366SOL    HW132539   0.904   7.755   5.811  0.6700 -1.8115 -0.3624
10366SOL    HW232540   0.961   7.887   5.765 -1.6801 -0.2361  1.0225
10367SOL     OW32541   1.650   6.337   7.863  0.8886  0.5302  0.4713
10367SOL    HW132542   1.559   6.335   7.895  1.7638  0.4483  3.1888
10367SOL    HW232543   1.654   6.415   7.808 -1.6049 -1.2055 -2.5327
10368SOL     OW32544   2.909   1.175   9.392 -0.2290  0.2023  0.3530
10368SOL    HW132545   2.934   1.132   9.474  1.2427  0.5426  0.1135
10368SOL    HW232546   2.820   1.143   9.374 -0.4228 -0.1860  1.8591
10369SOL     OW32547   7.067   5.295   4.454  0.2457 -0.7518  0.3353
10369SOL    HW132548   7.004   5.255   4.513 -3.2961  2.5647 -0.7512
10369SOL    HW232549   7.110   5.363   4.507 -0.9169  0.3685 -0.0970
10370SOL     OW32550   1.548   1.928   2.189  0.4662  0.3620 -0.7508
10370SOL    HW132551   1.633   1.913   2.147  1.4803 -0.0618  1.2981
10370SOL    HW232552   1.521   1.842   2.219 -0.8912  0.4442 -1.6765
10371SOL     OW32553   4.985   1.184   1.061 -0.0702  0.6585 -0.4593
10371SOL    HW132554   4.892   1.170   1.045  0.5255 -0.1578 -3.8105
10371SOL    HW232555   5.030   1.132   0.995  2.8029  1.5064  0.6326
10372SOL     OW32556   7.144   7.424   9.650 -0.3402  0.5898  0.0409
10372SOL    HW132557   7.219   7.448   9.703 -0.8058 -2.2285  2.2371
10372SOL    HW232558   7.070   7.471   9.688 -0.6833 -1.4565  2.1597
10373SOL     OW32559   1.270   5.427   3.314 -0.3501  0.4314 -0.0669
10373SOL    HW132560   1.244   5.402   3.225  0.7197  0.0591 -0.2917
10373SOL    HW232561   1.279   5.522   3.310  3.3272  0.1790 -1.4555
10374SOL     OW32562   7.389   6.866  11.440 -0.2179 -0.1263 -0.1948
10374SOL    HW132563   7.410   6.795  11.380 -1.2500 -0.3157 -0.3443
10374SOL    HW232564   7.387   6.825  11.527  1.5291  0.1961  0.0386
10375SOL     OW32565   0.584   3.834   8.773  0.2273 -0.6380  0.0917
10375SOL    HW132566   0.620   3.838   8.684 -0.0913 -0.0910 -0.0126
10375SOL    HW232567   0.489   3.839   8.761  0.2193  2.8235  0.6137
10376SOL     OW32568   2.789   5.946   9.670  0.2348 -0.0570  0.6915
10376SOL    HW132569   2.832   6.017   9.718 -0.6155  0.9201  0.0548
10376SOL    HW232570   2.702   5.940   9.710  0.2832 -0.7095  0.7003
10377SOL     OW32571   5.588   0.554   4.827  0.2731 -0.1101 -0.3787
10377SOL    HW132572   5.676   0.560   4.789  1.3421  2.9109  2.1161
10377SOL    HW232573   5.541   0.629   4.790  0.0190  0.4675  1.0458
10378SOL     OW32574   7.053   7.184   0.094  0.1129  0.0285 -0.2866
10378SOL    HW132575   7.130   7.188   0.150  1.4450 -1.6134 -1.8876
10378SOL    HW232576   7.084   7.211   0.007 -1.4757  0.8075 -0.6465
10379SOL     OW32577   2.067   6.170   0.999  0.0269 -0.0846  0.2707
10379SOL    HW132578   2.072   6.153   1.093 -1.8679 -0.9218  0.2766
10379SOL    HW232579   2.147   6.132   0.963 -0.3121 -1.8988  1.2957
10380SOL     OW32580   2.159   1.711   9.667  0.7439 -0.3868  0.6153
10380SOL    HW132581   2.120   1.796   9.689  0.1200 -0.5790  0.2815
10380SOL    HW232582   2.245   1.733   9.630  0.6014  0.1009  0.5659
10381SOL     OW32583   4.879   6.014   5.105 -0.3869  0.1403  0.3637
10381SOL    HW132584   4.967   6.005   5.067 -0.5195 -0.7897  0.2530
10381SOL    HW232585   4.820   6.009   5.030 -0.4801  3.4184  0.0792
10382SOL     OW32586   3.009   0.193   4.712  0.1075 -0.0601  0.6009
10382SOL    HW132587   2.925   0.172   4.755 -0.2820 -0.5271 -0.3718
10382SOL    HW232588   3.051   0.254   4.773 -0.5709 -0.4565  1.5023
10383SOL     OW32589   6.942   7.384   0.501  0.0638  0.2383 -0.1323
10383SOL    HW132590   6.937   7.391   0.596  0.3590 -0.8545 -0.0200
10383SOL    HW232591   7.036   7.395   0.481  0.0158  0.3687 -0.2911
10384SOL     OW32592   3.380   0.467   8.817  0.7317 -0.6683  0.3787
10384SOL    HW132593   3.369   0.377   8.848  0.9642 -0.4533  1.1014
10384SOL    HW232594   3.326   0.519   8.877  0.6612 -0.3142  0.0097
10385SOL     OW32595   6.663   6.460   1.716 -0.4750 -0.0236 -0.1344
10385SOL    HW132596   6.667   6.526   1.786 -1.2663 -1.4796  1.3301
10385SOL    HW232597   6.711   6.500   1.644  0.4210  1.5183  1.2429
10386SOL     OW32598   1.018   3.647   6.524 -0.3819  0.5336 -0.4041
10386SOL    HW132599   0.982   3.636   6.612 -0.5468 -0.8281 -0.6241
10386SOL    HW232600   1.027   3.742   6.513 -1.5135  0.7762  0.6208
10387SOL     OW32601   0.493   4.272   3.765  0.1118  0.1887  0.7461
10387SOL    HW132602   0.527   4.236   3.684  0.1082 -0.9672  1.2383
10387SOL    HW232603   0.570   4.281   3.822  0.0675  0.6811  0.7339
10388SOL     OW32604   7.193   5.717  11.058  0.1398 -0.4543 -0.2059
10388SOL    HW132605   7.201   5.644  11.120  0.6756 -1.3434 -1.2859
10388SOL    HW232606   7.281   5.756  11.055 -0.0185 -0.0735 -0.0172
10389SOL     OW32607   4.063   0.417   7.371  0.2276 -0.2262  0.0033
10389SOL    HW132608   4.061   0.427   7.276  0.1664  1.5886  0.1586
10389SOL    HW232609   3.971   0.412   7.396  0.1745  0.7003  0.0553
10390SOL     OW32610   0.762   3.018   9.758  0.1482 -0.4402 -0.1391
10390SOL    HW132611   0.780   3.034   9.851  1.1435 -0.8607 -0.2501
10390SOL    HW232612   0.668   2.999   9.755 -0.4036  1.8071  0.4602
10391SOL     OW32613   4.327   1.904  10.691 -0.0096 -0.9570 -0.4084
10391SOL    HW132614   4.395   1.880  10.754  1.4317  1.8326 -0.7527
10391SOL    HW232615   4.375   1.924  10.611 -1.0087  2.2627 -0.3182
10392SOL     OW32616   5.172   6.142   7.472  0.0905 -0.2771  0.2531
10392SOL    HW132617   5.247   6.172   7.524  0.2167  1.5990 -0.8915
10392SOL    HW232618   5.194   6.053   7.446  3.6870  1.2234 -2.8898
10393SOL     OW32619   7.162   2.498   9.256  0.2332 -0.1067 -0.1144
10393SOL    HW132620   7.144   2.592   9.261  2.6273  0.3498  2.6015
10393SOL    HW232621   7.195   2.485   9.167 -1.9479  1.1795 -1.2004
10394SOL     OW32622   5.629   5.846   7.683 -0.2217 -0.1681 -0.1353
10394SOL    HW132623   5.691   5.919   7.687 -0.3521 -0.1111  0.9602
10394SOL    HW232624   5.544   5.888   7.676 -0.1872 -0.2464 -1.3212
10395SOL     OW32625   2.232   6.693   0.783  0.1461  0.3747 -0.6440
10395SOL    HW132626   2.161   6.725   0.838 -0.4718 -0.5580 -0.8800
10395SOL    HW232627   2.284   6.637   0.840 -0.8381 -1.0823 -1.1147
10396SOL     OW32628   3.180   1.246   5.574 -0.0189 -0.2186 -0.1820
10396SOL    HW132629   3.158   1.194   5.651  0.2693 -0.8527 -0.5204
10396SOL    HW232630   3.250   1.198   5.530 -1.0181 -0.5387 -1.5064
10397SOL     OW32631   1.702   4.742   7.643  0.0732 -0.4287 -0.7695
10397SOL    HW132632   1.795   4.734   7.662 -0.2746  0.8729  1.9750
10397SOL    HW232633   1.659   4.697   7.716 -1.4392  1.9991 -0.0549
10398SOL     OW32634   0.742   6.741   7.734 -0.0214  0.2105  0.2490
10398SOL    HW132635   0.737   6.831   7.767 -1.2892 -0.1655  1.1665
10398SOL    HW232636   0.678   6.693   7.786  1.4560 -1.4877  0.5658
10399SOL     OW32637   3.503   4.201   5.667  0.9212  0.1968  0.2702
10399SOL    HW132638   3.501   4.296   5.681 -1.5166  0.2211  0.2241
10399SOL    HW232639   3.493   4.164   5.755 -1.8214  0.1193  0.0111
10400SOL     OW32640   7.627   4.889  11.831 -0.1034 -0.2365 -0.1318
10400SOL    HW132641   7.564   4.871  11.761 -1.5378 -1.0045  1.2975
10400SOL    HW232642   7.658   4.978  11.812  0.0352 -0.6469 -2.0806
10401SOL     OW32643   3.012   3.411   1.795  0.8710  0.6428  0.4805
10401SOL    HW132644   3.078   3.475   1.771  0.2865  1.2165  0.3834
10401SOL    HW232645   3.049   3.365   1.871  0.6219  2.1903  1.5807
10402SOL     OW32646   6.780   5.465   5.436 -0.2115  0.3180 -0.3420
10402SOL    HW132647   6.736   5.402   5.379 -1.4692  1.2399 -0.4263
10402SOL    HW232648   6.788   5.419   5.520  1.3708 -0.9328 -1.1057
10403SOL     OW32649   4.023   6.946   3.721 -0.4463 -0.3484  0.2214
10403SOL    HW132650   4.117   6.955   3.735 -0.2341 -2.3123  0.2988
10403SOL    HW232651   4.004   6.854   3.740 -2.4362  0.0626  0.4721
10404SOL     OW32652   7.659   5.566   1.671  0.0036  0.1048  0.1885
10404SOL    HW132653   7.615   5.484   1.646  0.1695  0.0179  0.1767
10404SOL    HW232654   7.731   5.538   1.728 -0.8683  0.3658  1.4501
10405SOL     OW32655   2.929   1.050   6.681 -0.0793  0.4462 -0.1367
10405SOL    HW132656   2.860   1.117   6.675 -0.1565  0.5358  1.3038
10405SOL    HW232657   2.885   0.968   6.660 -0.7169  0.4615  1.0744
10406SOL     OW32658   0.888   1.596   8.916  0.5700  0.3427 -0.1905
10406SOL    HW132659   0.968   1.555   8.882  0.9698 -0.1303  1.2467
10406SOL    HW232660   0.874   1.553   9.001 -2.3615 -1.0812 -1.2728
10407SOL     OW32661   6.123   6.431   2.127 -0.4712  0.4832  0.5404
10407SOL    HW132662   6.110   6.523   2.106 -1.0340  1.0375  2.9670
10407SOL    HW232663   6.034   6.395   2.130 -0.2346 -0.2440 -0.7101
10408SOL     OW32664   0.971   6.872   4.173  0.0361  0.4242 -0.3052
10408SOL    HW132665   0.926   6.788   4.174 -2.5389  1.6569  2.4218
10408SOL    HW232666   1.032   6.868   4.246  0.0027  0.8735 -0.2479
10409SOL     OW32667   4.615   6.672  11.754  0.1055 -0.1014  0.1380
10409SOL    HW132668   4.549   6.640  11.817  0.6115 -0.4453  0.5035
10409SOL    HW232669   4.592   6.629  11.672  0.9089 -1.6247  0.6743
10410SOL     OW32670   6.699   6.940   7.988  0.1321  0.0586  0.0400
10410SOL    HW132671   6.707   6.957   7.894 -0.6364 -3.3154 -0.7696
10410SOL    HW232672   6.782   6.900   8.013 -0.7980 -2.0151 -0.0202
10411SOL     OW32673   6.885   6.094   5.394  0.2833 -0.2550  0.0428
10411SOL    HW132674   6.947   6.080   5.322 -0.2379  0.1632 -0.4982
10411SOL    HW232675   6.800   6.071   5.358 -0.0349  0.3213  0.4071
10412SOL     OW32676   0.156   2.544  11.200  0.0779 -0.5150  0.2802
10412SOL    HW132677   0.095   2.490  11.249 -0.5848  1.3950  1.6886
10412SOL    HW232678   0.117   2.552  11.113 -2.4324  1.6446  1.4712
10413SOL     OW32679   5.614   2.778   5.163 -0.1620 -0.3191  0.9097
10413SOL    HW132680   5.644   2.729   5.086  1.4904  0.0559  1.2810
10413SOL    HW232681   5.565   2.714   5.215  0.3763 -1.0927  0.4809
10414SOL     OW32682   7.682   5.534  12.089 -1.2264 -0.3962 -0.1243
10414SOL    HW132683   7.674   5.604  12.153  0.4658  1.2612 -1.6058
10414SOL    HW232684   7.644   5.458  12.132 -0.0241  0.5666  2.9209
10415SOL     OW32685   6.873   4.348   8.122 -0.1717  0.6521  0.2268
10415SOL    HW132686   6.808   4.325   8.055 -0.5826  1.3869  0.3622
10415SOL    HW232687   6.955   4.354   8.074 -0.1896 -0.3127  0.0556
10416SOL     OW32688   7.096   7.482   1.313 -0.6225  0.0573  0.3757
10416SOL    HW132689   7.158   7.554   1.301 -0.9258  0.5177  1.4723
10416SOL    HW232690   7.151   7.404   1.321 -0.3331 -0.1597 -2.5528
10417SOL     OW32691   0.323   3.577   3.558  0.1040 -0.3057 -0.4535
10417SOL    HW132692   0.336   3.511   3.490  0.1827 -0.8864  0.1030
10417SOL    HW232693   0.257   3.538   3.616 -0.9204  0.7276 -0.8811
10418SOL     OW32694   2.940   5.961   8.520  0.2934  0.0097  0.0602
10418SOL    HW132695   2.846   5.958   8.502 -0.1291  1.2966  1.7661
10418SOL    HW232696   2.963   6.053   8.510  1.4817 -0.3560 -0.7275
10419SOL     OW32697   1.079   2.882   3.168 -0.1330  0.7406 -0.3673
10419SOL    HW132698   1.173   2.891   3.154 -0.2357  0.7837 -1.0434
10419SOL    HW232699   1.062   2.789   3.156  0.2281  0.2133  2.3706
10420SOL     OW32700   0.586   3.526   9.825  0.6313  0.1229  0.5877
10420SOL    HW132701   0.624   3.493   9.906  0.0287  0.9064  1.2008
10420SOL    HW232702   0.501   3.561   9.851  1.0479  1.7224 -0.1207
10421SOL     OW32703   3.033   5.767  12.058  0.4634  0.1932 -0.6614
10421SOL    HW132704   2.989   5.786  11.975  2.0429  0.4653 -1.4747
10421SOL    HW232705   3.063   5.853  12.088 -0.0612  0.0872  0.1964
10422SOL     OW32706   5.446   1.500  11.207  0.9243  0.0031  0.1821
10422SOL    HW132707   5.396   1.518  11.128 -0.1788 -0.9448  0.6471
10422SOL    HW232708   5.486   1.414  11.191  1.1035  0.0318  0.4656
10423SOL     OW32709   4.997   3.375   7.893 -0.3841 -0.1205 -0.0991
10423SOL    HW132710   4.904   3.391   7.877 -0.3967 -0.7670 -0.7249
10423SOL    HW232711   4.999   3.294   7.945 -0.1193 -0.9197 -1.3246
10424SOL     OW32712   1.884   7.047   7.964 -0.3761 -0.0917  0.8659
10424SOL    HW132713   1.951   7.008   8.019 -0.3971  0.2858  1.1627
10424SOL    HW232714   1.850   7.120   8.015  0.9929  1.5298 -0.4084
10425SOL     OW32715   2.260   0.609   9.985 -0.2520  0.1210 -0.5456
10425SOL    HW132716   2.258   0.646   9.896  0.5402  0.2261 -0.5233
10425SOL    HW232717   2.263   0.514   9.971 -0.2047  0.1344 -0.6253
10426SOL     OW32718   2.615   7.513   9.512  0.1150  0.0551  0.2947
10426SOL    HW132719   2.559   7.512   9.590 -0.1907  0.5854  0.0917
10426SOL    HW232720   2.695   7.469   9.539 -0.2643 -0.3920  0.6995
10427SOL     OW32721   4.148   5.694  10.523  0.5959  0.5160 -0.2860
10427SOL    HW132722   4.173   5.682  10.431 -1.2650  1.9799 -1.0502
10427SOL    HW232723   4.111   5.609  10.548 -1.5392  0.9034 -1.8481
10428SOL     OW32724   5.141   3.825  10.680  0.1600 -0.0207 -0.1628
10428SOL    HW132725   5.136   3.776  10.598  1.1056 -2.2068  1.0152
10428SOL    HW232726   5.049   3.839  10.704 -0.1786 -1.9042 -0.1932
10429SOL     OW32727   6.927   5.164   8.234 -0.4487 -0.3083 -0.2630
10429SOL    HW132728   6.970   5.226   8.175 -1.4608  0.2017 -0.4995
10429SOL    HW232729   6.983   5.160   8.311 -0.4974  1.1263 -0.1267
10430SOL     OW32730   2.049   5.159   1.087  0.0227  0.1554  0.0278
10430SOL    HW132731   2.103   5.234   1.110 -0.0255 -0.2803  1.7107
10430SOL    HW232732   1.988   5.192   1.022  0.4210  1.4096  0.2595
10431SOL     OW32733   6.056   6.782   7.608  0.3615 -0.0238  0.2102
10431SOL    HW132734   6.043   6.689   7.629  2.6334 -0.1437  1.4784
10431SOL    HW232735   6.147   6.786   7.576  0.9729  1.9925  1.9856
10432SOL     OW32736   4.132   4.972   2.353  0.1281  0.3228 -0.8011
10432SOL    HW132737   4.099   4.892   2.395  1.4020  0.5041  0.6269
10432SOL    HW232738   4.189   4.940   2.283  0.8985 -0.0437 -0.0231
10433SOL     OW32739   1.079   5.590   1.797 -0.1657  0.8793 -0.3231
10433SOL    HW132740   0.987   5.603   1.772  0.6382  0.4526 -4.0312
10433SOL    HW232741   1.115   5.678   1.802 -0.3676  0.9851 -0.6935
10434SOL     OW32742   2.352   6.730  10.136  0.3405  0.3461 -0.1651
10434SOL    HW132743   2.266   6.690  10.132  1.0286 -1.5476  1.9046
10434SOL    HW232744   2.394   6.705  10.053 -0.2466 -0.8534 -0.1169
10435SOL     OW32745   5.391   7.781   4.624  0.1632 -0.1615 -0.1996
10435SOL    HW132746   5.431   7.695   4.612  0.3102 -0.0773 -0.3163
10435SOL    HW232747   5.418   7.808   4.712  2.4808  0.9863 -1.1538
10436SOL     OW32748   5.331   5.056   6.854 -0.3741  0.3558  0.1525
10436SOL    HW132749   5.325   5.132   6.795 -1.4084  1.1480  1.2392
10436SOL    HW232750   5.324   5.094   6.942 -2.0281 -1.0986  0.6870
10437SOL     OW32751   3.554   3.480   7.142  0.4731  0.6598 -0.2787
10437SOL    HW132752   3.600   3.519   7.216 -0.2860  1.2987 -0.1385
10437SOL    HW232753   3.462   3.482   7.166  0.3176 -0.1385 -0.7774
10438SOL     OW32754   2.061   0.278  10.511 -0.2904  0.1142  0.4017
10438SOL    HW132755   2.106   0.202  10.548  0.1751 -0.5024 -1.3620
10438SOL    HW232756   2.042   0.254  10.421 -1.5616  1.5047  0.2609
10439SOL     OW32757   6.249   7.383  12.376  0.5012 -0.0677  0.3383
10439SOL    HW132758   6.285   7.373  12.288 -1.0291 -2.4553 -0.1282
10439SOL    HW232759   6.158   7.352  12.368  0.1322  0.2543  2.6213
10440SOL     OW32760   1.677   5.050   2.667 -0.3100 -0.2889  0.3489
10440SOL    HW132761   1.634   4.979   2.619 -2.5523  0.6346  0.8578
10440SOL    HW232762   1.611   5.080   2.730  1.0738  1.3050  1.1149
10441SOL     OW32763   5.515   4.381   2.184 -0.4751  0.0311 -0.4878
10441SOL    HW132764   5.434   4.429   2.166 -0.2765  0.7493  0.4963
10441SOL    HW232765   5.563   4.385   2.101  0.2009  2.8657 -0.0804
10442SOL     OW32766   2.887   6.913   0.657  0.5238  0.4728 -0.2171
10442SOL    HW132767   2.815   6.851   0.672 -2.1413  2.4594 -3.4325
10442SOL    HW232768   2.951   6.864   0.606 -0.8935 -0.1055 -1.5163
10443SOL     OW32769   5.637   3.842   1.894  0.0438 -0.1547 -0.5164
10443SOL    HW132770   5.689   3.783   1.840  1.3081 -0.5516  1.0204
10443SOL    HW232771   5.702   3.900   1.935 -0.8604  0.2643  0.3912
10444SOL     OW32772   5.910   7.208  11.736 -0.7616  0.4462  0.1515
10444SOL    HW132773   5.946   7.238  11.652  0.4289  0.6654  0.7162
10444SOL    HW232774   5.871   7.287  11.775 -0.5811  0.5250  0.1709
10445SOL     OW32775   5.089   3.052   2.372  0.2088 -0.8730 -0.8977
10445SOL    HW132776   5.004   3.079   2.406  0.5697  0.0340 -0.7010
10445SOL    HW232777   5.129   3.002   2.443 -0.1397 -1.2802 -0.9814
10446SOL     OW32778   7.185   0.073  12.401 -0.3137  0.1725  0.7307
10446SOL    HW132779   7.162   0.022  12.478  3.6999  2.2892  3.6751
10446SOL    HW232780   7.261   0.029  12.364  1.2448  2.1135  1.4425
10447SOL     OW32781   1.186   1.915   6.515  0.3092  0.3213  0.0229
10447SOL    HW132782   1.193   1.848   6.583 -1.1545  1.3791  1.3144
10447SOL    HW232783   1.168   1.996   6.564  0.8783  1.4405 -1.5492
10448SOL     OW32784   1.548   5.698   7.547 -0.0770 -0.5692  0.0631
10448SOL    HW132785   1.567   5.677   7.456 -0.0533 -0.0340 -0.0605
10448SOL    HW232786   1.632   5.689   7.592  0.2851  0.8232 -0.2957
10449SOL     OW32787   6.831   3.018   6.546  0.2637 -0.0991 -0.1945
10449SOL    HW132788   6.832   3.113   6.543  0.2444 -0.0905 -3.1234
10449SOL    HW232789   6.773   2.992   6.474  0.2154 -2.3407  0.5511
10450SOL     OW32790   1.083   0.103   8.938 -0.1506 -0.5916  0.4270
10450SOL    HW132791   1.048   0.180   8.894  1.3119  0.4789  1.0757
10450SOL    HW232792   1.177   0.104   8.918  0.4254 -0.5006  2.8649
10451SOL     OW32793   6.458   1.828   3.166 -0.6422 -0.4003  0.2682
10451SOL    HW132794   6.476   1.748   3.115 -0.4860  0.1582 -0.5658
10451SOL    HW232795   6.371   1.813   3.204 -0.8679 -0.7287 -0.3586
10452SOL     OW32796   3.996   4.919   2.959  0.1256  0.0456 -0.3450
10452SOL    HW132797   3.974   4.970   3.037 -0.9891 -0.3740 -0.3674
10452SOL    HW232798   3.958   4.969   2.886  0.0023 -0.2331 -0.4761
10453SOL     OW32799   1.528   0.024   8.676  0.0533  0.2536 -0.1727
10453SOL    HW132800   1.566   0.106   8.708  3.3636 -0.5534 -1.6211
10453SOL    HW232801   1.539  -0.037   8.749  3.5789 -0.4544 -1.1224
10454SOL     OW32802   2.040   1.764   0.510 -0.3596  0.5605 -0.2336
10454SOL    HW132803   1.950   1.788   0.532 -0.3054  1.0125 -0.4921
10454SOL    HW232804   2.068   1.831   0.447  0.1327  0.3818 -0.2093
10455SOL     OW32805   4.765   1.571   3.329 -0.6112 -0.4241  0.4895
10455SOL    HW132806   4.817   1.641   3.288 -1.0420  0.0437  0.7215
10455SOL    HW232807   4.791   1.492   3.282 -1.9472  0.2602 -1.5460
10456SOL     OW32808   2.697   7.596  10.308  0.0775 -0.1014  0.4595
10456SOL    HW132809   2.668   7.577  10.219 -1.8240  0.0802  0.9959
10456SOL    HW232810   2.620   7.635  10.350  1.3214  0.9577  1.8203
10457SOL     OW32811   4.157   4.989   3.473  0.2800 -0.3563  0.0905
10457SOL    HW132812   4.065   4.970   3.458  0.5746 -0.6930 -1.3944
10457SOL    HW232813   4.202   4.905   3.458  1.0075  0.2149 -1.0398
10458SOL     OW32814   3.181   0.982   9.399  0.5538 -0.1125  0.2402
10458SOL    HW132815   3.182   0.923   9.324 -0.9021  1.9000 -1.5088
10458SOL    HW232816   3.251   0.950   9.456 -0.8304 -4.1570  0.0274
10459SOL     OW32817   5.047   5.359  10.975 -0.0819 -1.1267  0.2506
10459SOL    HW132818   5.038   5.378  11.069  1.3262 -1.0033  0.3857
10459SOL    HW232819   5.039   5.264  10.970 -1.6779 -1.0181  0.2798
10460SOL     OW32820   0.587   7.238   4.480 -0.2093  0.0101 -0.0849
10460SOL    HW132821   0.667   7.255   4.431 -0.5550 -0.9595 -1.0220
10460SOL    HW232822   0.611   7.170   4.543  0.8044  2.6925  2.6989
10461SOL     OW32823   2.957   5.261  10.064 -0.8809 -0.1533  0.0005
10461SOL    HW132824   2.909   5.179  10.080 -1.3450  0.4945  2.2957
10461SOL    HW232825   2.994   5.284  10.149  2.9020 -0.1426 -1.4521
10462SOL     OW32826   7.640   3.386   2.206 -0.4528 -0.2406 -0.6058
10462SOL    HW132827   7.621   3.456   2.267  2.2467 -0.1078  0.2028
10462SOL    HW232828   7.680   3.429   2.130  0.8796 -0.8199 -0.2643
10463SOL     OW32829   1.262   2.071   2.370 -0.0349 -0.2864  0.2180
10463SOL    HW132830   1.223   2.135   2.310 -0.1348 -0.1821  0.3912
10463SOL    HW232831   1.350   2.056   2.335  1.4873  2.7953  2.1635
10464SOL     OW32832   2.821   5.126   2.106 -1.2865  0.1005 -0.2478
10464SOL    HW132833   2.831   5.054   2.044 -0.8505  0.5729 -0.7364
10464SOL    HW232834   2.807   5.083   2.191 -0.5853 -0.5700 -0.4545
10465SOL     OW32835   5.747   4.443   9.391  0.1044  1.2511 -0.4825
10465SOL    HW132836   5.666   4.469   9.435  0.4811 -1.7427  2.3661
10465SOL    HW232837   5.816   4.462   9.454  1.1205  0.0743 -1.1852
10466SOL     OW32838   7.515   6.568   1.070 -0.0962  0.3321  0.2397
10466SOL    HW132839   7.461   6.524   1.135  0.0661 -0.2063  0.0199
10466SOL    HW232840   7.592   6.599   1.118 -0.9719  1.8357  0.7173
10467SOL     OW32841   3.847   2.178   1.312  0.1619 -0.5470  0.1381
10467SOL    HW132842   3.917   2.243   1.315 -0.3962  0.0289  0.6349
10467SOL    HW232843   3.876   2.116   1.245  0.3742  0.5742 -0.8442
10468SOL     OW32844   3.589   6.219   0.740 -0.1433  0.0573 -0.6246
10468SOL    HW132845   3.683   6.220   0.760 -0.3147 -0.7523  0.3215
10468SOL    HW232846   3.562   6.310   0.745  0.5951  0.3025 -0.9400
10469SOL     OW32847   0.416   6.143   8.821  0.0461  0.1700 -0.6968
10469SOL    HW132848   0.481   6.206   8.790  0.2850 -0.5298 -1.6807
10469SOL    HW232849   0.460   6.096   8.892  0.3143  0.2623 -0.8000
10470SOL     OW32850   1.928   0.969   0.513 -0.4485  0.4250  0.1050
10470SOL    HW132851   1.967   0.985   0.427 -0.5723 -0.1118 -0.0568
10470SOL    HW232852   1.887   1.052   0.537  1.1770  1.1536  0.4952
10471SOL     OW32853   6.729   3.484   7.485  0.6944  0.3113  0.1199
10471SOL    HW132854   6.764   3.483   7.574  0.0009  2.5915  0.4685
10471SOL    HW232855   6.641   3.447   7.494  0.9515 -0.3011  0.1954
10472SOL     OW32856   0.307   6.054   4.559 -0.3394 -0.2471  0.5206
10472SOL    HW132857   0.254   6.134   4.563  1.3919  1.0487 -0.7997
10472SOL    HW232858   0.330   6.036   4.650 -3.9137 -1.5797  1.3255
10473SOL     OW32859   3.329   7.680   4.280 -0.3321  0.0958 -0.4619
10473SOL    HW132860   3.396   7.714   4.339 -0.6832 -2.1549  1.3941
10473SOL    HW232861   3.246   7.696   4.326 -0.5708 -2.2212  0.0391
10474SOL     OW32862   0.013   6.423   2.858  0.0806 -0.1907 -0.3056
10474SOL    HW132863  -0.019   6.340   2.821 -0.0750  0.4316 -1.6147
10474SOL    HW232864  -0.066   6.478   2.863  0.4025  0.3121 -0.6790
10475SOL     OW32865   1.862   0.652   1.841 -0.2779 -0.1115  0.2154
10475SOL    HW132866   1.916   0.730   1.856  0.1696 -0.4264  0.2427
10475SOL    HW232867   1.814   0.640   1.923  0.1407 -0.2453  0.4452
10476SOL     OW32868   3.679   2.514   5.338 -0.2587  0.0426  0.1231
10476SOL    HW132869   3.757   2.568   5.324 -1.0868  1.3041  0.2545
10476SOL    HW232870   3.610   2.559   5.291 -0.7891 -1.4319 -0.5537
10477SOL     OW32871   6.875   6.416   5.160 -0.2394  0.1078 -0.4391
10477SOL    HW132872   6.908   6.343   5.109  0.4724  0.8576 -1.0744
10477SOL    HW232873   6.804   6.378   5.213 -1.0135 -0.6952 -1.9731
10478SOL     OW32874   6.248   6.931   5.760  0.6761 -0.5479 -0.2126
10478SOL    HW132875   6.185   6.867   5.791 -0.0103  0.3627  0.3076
10478SOL    HW232876   6.248   7.000   5.826 -0.4787  1.2198 -1.9398
10479SOL     OW32877   0.393   2.490   8.851  0.1610 -0.2265 -0.0469
10479SOL    HW132878   0.320   2.545   8.879  0.0774 -0.4514  0.1839
10479SOL    HW232879   0.455   2.550   8.809 -0.8236 -0.2433 -1.5864
10480SOL     OW32880   4.550   2.975   9.213 -0.4104  0.1368  0.3614
10480SOL    HW132881   4.460   2.991   9.185  0.6366  1.5697 -2.6039
10480SOL    HW232882   4.600   3.047   9.175  2.3741 -2.0201 -0.3516
10481SOL     OW32883   5.275   0.328  12.143  0.1444  0.8229 -0.0265
10481SOL    HW132884   5.284   0.375  12.225  0.2356  1.5813 -0.4587
10481SOL    HW232885   5.348   0.266  12.142  0.7267  1.4961  0.0268
10482SOL     OW32886   0.871   2.857   5.120  0.1289 -0.1390 -0.3934
10482SOL    HW132887   0.868   2.810   5.203 -0.4405 -1.1601 -0.9576
10482SOL    HW232888   0.842   2.946   5.141  1.7435  0.1395  0.7949
10483SOL     OW32889   4.714   2.575   7.645  0.2968 -0.3294  0.2928
10483SOL    HW132890   4.808   2.587   7.664 -0.1307  1.6636  1.4525
10483SOL    HW232891   4.680   2.530   7.723 -0.2530  1.8793  1.3970
10484SOL     OW32892   4.959   6.076  10.215  0.1725 -0.0868  0.5003
10484SOL    HW132893   5.050   6.092  10.240  1.0174 -2.4033 -0.8069
10484SOL    HW232894   4.907   6.116  10.285  2.2539 -1.0631  2.7202
10485SOL     OW32895   3.977   6.333  11.724 -0.2790 -0.5874 -0.5480
10485SOL    HW132896   3.884   6.353  11.730 -0.2240 -0.1376 -1.0824
10485SOL    HW232897   3.981   6.243  11.692 -0.5365 -1.5456  1.8564
10486SOL     OW32898   7.478   4.575   8.092  0.2338 -0.3344  0.3384
10486SOL    HW132899   7.524   4.491   8.094  1.1487  0.1475  2.2145
10486SOL    HW232900   7.542   4.638   8.124 -0.2889  1.1933 -1.4377
10487SOL     OW32901   7.774   2.888   6.633  0.3235  0.1745 -0.2050
10487SOL    HW132902   7.761   2.936   6.552 -1.9559 -0.3094 -0.1873
10487SOL    HW232903   7.746   2.949   6.702  0.9783  0.1102  0.1302
10488SOL     OW32904   3.281   7.824   1.353 -0.7189 -0.2589 -0.7926
10488SOL    HW132905   3.362   7.874   1.343  1.4178 -2.7427  2.1239
10488SOL    HW232906   3.240   7.862   1.432 -1.1058 -0.5966 -0.8288
10489SOL     OW32907   4.796   5.633   3.623  0.1276 -0.5725  0.3376
10489SOL    HW132908   4.724   5.571   3.613  1.5945 -2.4682  0.7996
10489SOL    HW232909   4.827   5.648   3.533 -0.1895 -0.5771  0.2274
10490SOL     OW32910   0.845   5.085  11.072 -0.5981 -0.4016  0.4584
10490SOL    HW132911   0.882   4.997  11.083  1.2185  0.3160  0.3124
10490SOL    HW232912   0.850   5.101  10.977  1.2522  0.7185  0.6920
10491SOL     OW32913   6.836   1.313   6.754  0.1123 -0.0085  0.0370
10491SOL    HW132914   6.782   1.386   6.724 -2.8124 -0.8367  2.7155
10491SOL    HW232915   6.860   1.336   6.844  1.2064 -1.2826  0.1018
10492SOL     OW32916   0.491   0.917  10.832 -0.5397  0.4380  0.2300
10492SOL    HW132917   0.409   0.934  10.879 -0.1149  0.3374  1.0278
10492SOL    HW232918   0.513   0.827  10.855  0.2579  0.7599  0.7477
10493SOL     OW32919   5.123   5.229   8.594  0.3085 -0.4499  0.2269
10493SOL    HW132920   5.180   5.206   8.521 -0.4337 -0.9121 -0.2255
10493SOL    HW232921   5.070   5.302   8.562  0.3524 -0.2986  0.4923
10494SOL     OW32922   5.409   1.473   0.939 -0.6588 -0.5279  0.0420
10494SOL    HW132923   5.354   1.426   1.003  0.1718 -2.2680 -0.4734
10494SOL    HW232924   5.357   1.472   0.858 -1.5811  1.4191  0.5400
10495SOL     OW32925   1.701   6.579   5.112  0.0095  0.2168 -0.3987
10495SOL    HW132926   1.616   6.538   5.129 -0.0398  0.6967  0.5837
10495SOL    HW232927   1.680   6.672   5.101  0.4041  0.3267 -0.2136
10496SOL     OW32928   6.636   0.416   6.997 -0.7292  0.0909 -0.0416
10496SOL    HW132929   6.718   0.451   6.962 -0.8811  1.8494  1.2371
10496SOL    HW232930   6.603   0.359   6.927  2.5366 -2.3684  0.1604
10497SOL     OW32931   6.487   4.628   4.030  0.0641 -0.0393  0.5682
10497SOL    HW132932   6.440   4.559   3.983  0.2138 -1.3758  2.2782
10497SOL    HW232933   6.560   4.582   4.071  0.4445  1.2514  1.3738
10498SOL     OW32934   0.161   1.336   0.831 -0.3929 -0.0740 -0.2264
10498SOL    HW132935   0.209   1.295   0.903  0.1750  0.4575 -0.2910
10498SOL    HW232936   0.216   1.411   0.806 -1.2965  0.5834 -0.2575
10499SOL     OW32937   6.741   5.742   5.002  0.0128  0.2391 -0.5938
10499SOL    HW132938   6.681   5.693   5.058  1.5333 -1.6279 -0.4816
10499SOL    HW232939   6.743   5.830   5.039 -0.7025 -0.3563  0.9222
10500SOL     OW32940   5.117   5.172   0.522  0.3086 -0.6066 -0.7126
10500SOL    HW132941   5.127   5.259   0.483  0.3614 -0.6408 -0.7773
10500SOL    HW232942   5.205   5.134   0.518  1.1429  0.6400  2.4641
10501SOL     OW32943   6.940   3.958   3.309 -0.2101  0.2255 -0.1510
10501SOL    HW132944   6.951   4.013   3.386 -0.1209  1.2887 -0.9061
10501SOL    HW232945   6.871   4.001   3.258 -0.1973 -0.4022 -0.7209
10502SOL     OW32946   1.146   7.504   9.434 -0.2225 -0.3402 -0.0117
10502SOL    HW132947   1.059   7.521   9.398 -0.4524 -0.6978  0.3715
10502SOL    HW232948   1.133   7.504   9.529  0.0620 -1.0944  0.0291
10503SOL     OW32949   7.461   3.173   6.965 -0.8079  0.7083 -0.2057
10503SOL    HW132950   7.525   3.222   7.016 -0.8317  1.8433 -1.2158
10503SOL    HW232951   7.411   3.124   7.030  1.6372 -0.9794  0.5776
10504SOL     OW32952   5.001   7.946   2.124 -0.3647 -0.1743 -0.0077
10504SOL    HW132953   5.083   7.994   2.134 -1.2479  1.2668  0.5401
10504SOL    HW232954   4.994   7.928   2.031  1.6117 -2.2755  0.1575
10505SOL     OW32955   0.198   3.345   0.842  0.0470 -0.3080 -0.2298
10505SOL    HW132956   0.153   3.382   0.766 -0.2447  0.3019  0.2312
10505SOL    HW232957   0.154   3.261   0.856  1.2420 -1.2512 -1.7635
10506SOL     OW32958   2.393   1.872  11.379  0.3657  0.2178  0.5734
10506SOL    HW132959   2.337   1.948  11.394  1.6408  1.1733  0.7135
10506SOL    HW232960   2.401   1.867  11.283  0.4891  0.4334  0.5715
10507SOL     OW32961   6.391   5.674  10.427  0.0195 -0.0187 -0.0219
10507SOL    HW132962   6.309   5.716  10.453 -0.7468 -0.3526 -1.7336
10507SOL    HW232963   6.452   5.747  10.416 -0.7696  0.5113 -1.1246
10508SOL     OW32964   2.657   4.751  12.405 -0.4566 -0.3454  0.0738
10508SOL    HW132965   2.614   4.827  12.364 -3.7824 -1.8457  0.4551
10508SOL    HW232966   2.638   4.762  12.498  2.5599  0.3324  0.7060
10509SOL     OW32967   5.971   6.044   8.327  0.3393  0.6578  0.0069
10509SOL    HW132968   5.905   6.056   8.259  1.3243 -2.0755 -1.6067
10509SOL    HW232969   6.047   6.011   8.280  1.2358 -0.8501  2.3738
10510SOL     OW32970   4.074   3.650   2.724  0.2664 -0.6834  0.1196
10510SOL    HW132971   4.029   3.727   2.690  3.3339  1.2986  0.1920
10510SOL    HW232972   4.004   3.595   2.760 -2.1078  1.7434 -0.5123
10511SOL     OW32973   7.296   1.699  10.215  0.1052 -0.5074  0.7934
10511SOL    HW132974   7.207   1.735  10.217  0.7079  1.0555  0.8958
10511SOL    HW232975   7.320   1.700  10.123 -0.8765 -3.3879  0.4021
10512SOL     OW32976   2.984   0.702   3.139  0.0410  0.2670  0.4525
10512SOL    HW132977   2.972   0.755   3.060 -0.7730 -0.9621 -0.2820
10512SOL    HW232978   2.941   0.619   3.119  0.1256 -0.1993  2.0718
10513SOL     OW32979   5.429   4.948   2.500  0.3176 -0.1125  0.0556
10513SOL    HW132980   5.475   5.006   2.440 -0.2965 -1.2944 -1.6237
10513SOL    HW232981   5.349   4.996   2.523  1.2418  0.9644  1.1480
10514SOL     OW32982   5.282   0.582   8.187  0.3096 -1.1487 -0.5018
10514SOL    HW132983   5.325   0.667   8.178  1.1426 -1.5592 -0.5168
10514SOL    HW232984   5.255   0.578   8.279  2.2557 -1.7583  0.1004
10515SOL     OW32985   7.343   5.121   3.694 -0.2110  0.1108  0.4358
10515SOL    HW132986   7.326   5.190   3.630  0.3511 -0.0340  0.1257
10515SOL    HW232987   7.431   5.141   3.728 -0.7969  0.6322  1.7293
10516SOL     OW32988   7.103   2.757   9.192  0.0748 -0.4117  0.6691
10516SOL    HW132989   7.031   2.818   9.174 -0.5921 -0.2323  3.4783
10516SOL    HW232990   7.182   2.809   9.178 -0.3981  0.2131  0.2112
10517SOL     OW32991   1.104   1.601   2.239  0.1136  0.2194  0.0138
10517SOL    HW132992   1.098   1.570   2.149 -0.7237 -0.4696  0.2906
10517SOL    HW232993   1.172   1.668   2.237  1.2743 -0.9373 -0.8025
10518SOL     OW32994   7.366   3.335  11.159  0.0028 -0.1947 -0.3793
10518SOL    HW132995   7.321   3.385  11.092 -0.3775 -1.8798 -1.4324
10518SOL    HW232996   7.459   3.350  11.142 -0.1116  0.6795 -0.2517
10519SOL     OW32997   0.380   5.481   1.988  0.0680  0.4312 -0.2755
10519SOL    HW132998   0.337   5.483   1.902  0.1904  1.3811 -0.3224
10519SOL    HW232999   0.318   5.524   2.046 -0.6067 -1.3765  0.4128
10520SOL     OW33000   0.790   5.247   3.031 -0.5405 -0.1915  0.0914
10520SOL    HW133001   0.817   5.338   3.040  0.5323 -0.5590  0.7047
10520SOL    HW233002   0.739   5.229   3.110  0.3843 -0.4977  0.6345
10521SOL     OW33003   1.494   0.505   5.973  0.3648 -0.3750  0.2033
10521SOL    HW133004   1.495   0.600   5.966 -3.3375 -0.1997  0.0968
10521SOL    HW233005   1.462   0.474   5.888 -0.0560 -1.6099  0.7832
10522SOL     OW33006   4.163   6.111  10.118  0.0774  0.3774  0.6868
10522SOL    HW133007   4.087   6.073  10.075 -0.0998  1.1735  0.2777
10522SOL    HW233008   4.214   6.151  10.047  0.0375  1.2646  1.1361
10523SOL     OW33009   2.592   4.234  10.464 -0.6757 -0.1862 -0.3676
10523SOL    HW133010   2.684   4.210  10.448 -1.0566 -0.2040 -3.0519
10523SOL    HW233011   2.576   4.306  10.404 -2.2826  0.1819  0.4691
10524SOL     OW33012   6.773   2.214   3.933  0.0037 -0.8543 -0.6936
10524SOL    HW133013   6.857   2.215   3.980 -0.8531 -0.7822  0.9192
10524SOL    HW233014   6.739   2.303   3.943 -1.8250 -1.7064  1.7385
10525SOL     OW33015   1.075   7.304   0.120 -0.0747  0.2671  0.1348
10525SOL    HW133016   1.120   7.236   0.070  0.1850  0.7558 -0.2997
10525SOL    HW233017   0.982   7.290   0.100  0.0389  0.5483 -0.5991
10526SOL     OW33018   5.887   3.114  11.284 -0.3285  0.0988  0.1387
10526SOL    HW133019   5.873   3.127  11.190  1.8727  1.8849 -0.0281
10526SOL    HW233020   5.827   3.176  11.326  0.0755  0.7316 -0.1968
10527SOL     OW33021   0.971   1.286  10.965 -0.6586 -0.1790  0.2270
10527SOL    HW133022   0.975   1.338  10.885  1.2378 -0.8361 -0.1593
10527SOL    HW233023   0.877   1.277  10.984 -1.1576 -0.2780 -2.0888
10528SOL     OW33024   1.739   6.671   1.329  0.4837  0.4794  0.4481
10528SOL    HW133025   1.825   6.640   1.302  0.2028 -2.9906  2.8474
10528SOL    HW233026   1.679   6.634   1.265  0.6155  1.3156 -0.1655
10529SOL     OW33027   6.614   4.558   6.145  0.5410 -0.2263  0.5107
10529SOL    HW133028   6.598   4.649   6.119 -0.8576 -0.1010  1.6905
10529SOL    HW233029   6.593   4.507   6.067  0.4327  0.3932  0.1259
10530SOL     OW33030   7.923   3.770   5.359 -0.5735 -0.2836 -0.1614
10530SOL    HW133031   7.984   3.816   5.301  0.1983  0.6621  1.3489
10530SOL    HW233032   7.955   3.680   5.361  0.6124  0.1319  0.3797
10531SOL     OW33033   2.720   4.635   8.722  0.6420 -0.2279 -0.5234
10531SOL    HW133034   2.700   4.545   8.695  0.4809 -1.0335  2.0125
10531SOL    HW233035   2.641   4.684   8.702  0.5539 -0.7419 -1.4949
10532SOL     OW33036   1.963   4.448   9.842 -0.5327 -0.4133  0.2958
10532SOL    HW133037   1.911   4.368   9.848 -1.9641  0.4309 -0.4937
10532SOL    HW233038   1.971   4.464   9.748 -0.6842  0.6488  0.4586
10533SOL     OW33039   6.297   0.395   0.540 -0.1403  0.2571  0.1609
10533SOL    HW133040   6.247   0.352   0.471 -0.8299 -0.2562  0.9578
10533SOL    HW233041   6.252   0.371   0.621  2.2225 -1.4316  1.0768
10534SOL     OW33042   6.174   7.889   4.914  0.0992 -0.0698  0.3060
10534SOL    HW133043   6.082   7.889   4.886  0.0955  0.7923  0.2821
10534SOL    HW233044   6.220   7.837   4.848 -0.0979  0.9336 -0.6454
10535SOL     OW33045   6.183   5.012   8.887  0.7074  0.6705 -0.2399
10535SOL    HW133046   6.196   4.967   8.971  0.6013  0.4526 -0.3419
10535SOL    HW233047   6.260   5.069   8.879  1.2524 -0.0799 -0.4918
10536SOL     OW33048   4.477   3.838   7.839 -0.6745 -0.2483 -0.2547
10536SOL    HW133049   4.461   3.855   7.746  1.1136  2.8698 -0.1372
10536SOL    HW233050   4.534   3.761   7.839  1.4906  1.2130 -2.0526
10537SOL     OW33051   7.934   3.259   9.316 -0.1633  0.3892  0.1098
10537SOL    HW133052   7.959   3.316   9.243 -0.7696  0.5154 -0.0007
10537SOL    HW233053   7.882   3.315   9.374  0.2958  0.2854  0.6318
10538SOL     OW33054   1.082   6.075  10.174 -0.0659  0.0168  0.1405
10538SOL    HW133055   1.156   6.060  10.116 -0.7886 -1.4909 -0.4466
10538SOL    HW233056   1.033   5.992  10.172 -1.7774  0.9751  0.4822
10539SOL     OW33057   1.754   4.840   6.378  0.2901 -0.0358 -0.0391
10539SOL    HW133058   1.776   4.752   6.346  2.3601  0.7991 -1.1088
10539SOL    HW233059   1.755   4.832   6.473  0.6189 -1.1435 -0.1205
10540SOL     OW33060   6.105   7.246   4.061  0.1693  0.3631 -0.1337
10540SOL    HW133061   6.200   7.254   4.057  0.3450 -1.6105 -2.3551
10540SOL    HW233062   6.072   7.322   4.013  0.7160  0.1709 -0.8315
10541SOL     OW33063   2.032   3.487  12.023 -0.0883 -0.0836 -0.7018
10541SOL    HW133064   2.019   3.394  12.041  1.5296 -0.6103 -2.0239
10541SOL    HW233065   2.008   3.530  12.105 -0.4028 -1.7011  0.1057
10542SOL     OW33066   1.686   5.598   3.224 -0.0577 -0.6758  0.1828
10542SOL    HW133067   1.717   5.655   3.153 -0.3211 -1.1851 -0.3474
10542SOL    HW233068   1.666   5.659   3.295  0.8892 -0.2213  0.0772
10543SOL     OW33069   5.946   2.571   9.076  0.0394  0.0234 -0.0740
10543SOL    HW133070   5.981   2.564   9.165  0.3198  0.5924 -0.1331
10543SOL    HW233071   5.984   2.652   9.042 -1.7247  0.9438  0.0314
10544SOL     OW33072   4.184   6.200   7.088  0.2694 -0.4815 -0.3254
10544SOL    HW133073   4.239   6.127   7.118 -0.6481 -1.9158 -1.9531
10544SOL    HW233074   4.101   6.159   7.063 -0.1297  1.0508 -1.6960
10545SOL     OW33075   4.999   1.883   3.832 -0.1612 -0.3462 -0.1671
10545SOL    HW133076   4.997   1.928   3.916 -1.4140 -0.1504 -0.2727
10545SOL    HW233077   5.016   1.952   3.768 -0.5533 -0.2696 -0.1908
10546SOL     OW33078   1.418   4.236   1.814  0.2968  0.0801  0.0415
10546SOL    HW133079   1.456   4.190   1.889 -0.6514 -1.4656 -0.3810
10546SOL    HW233080   1.487   4.235   1.748  0.3223 -0.7148  0.0662
10547SOL     OW33081   1.129   3.305   5.344 -0.2464 -0.3940 -0.7197
10547SOL    HW133082   1.166   3.267   5.265  1.5813 -0.0699 -0.0610
10547SOL    HW233083   1.197   3.363   5.378 -2.0182  1.6374 -0.3863
10548SOL     OW33084   4.918   2.712   7.306 -0.3672  0.9009  0.0998
10548SOL    HW133085   4.943   2.734   7.217  1.1499 -0.4561  0.1461
10548SOL    HW233086   4.878   2.625   7.299 -1.3329  1.2851  0.6047
10549SOL     OW33087   3.543   3.074  11.510  0.4371  0.0938 -0.1333
10549SOL    HW133088   3.539   2.985  11.545  3.9045 -0.3936 -0.6429
10549SOL    HW233089   3.608   3.118  11.564 -0.8267  2.2372 -0.2370
10550SOL     OW33090   0.156   5.175   3.873 -0.2674  0.0218 -0.3008
10550SOL    HW133091   0.218   5.242   3.900  0.3716  0.6107 -2.9873
10550SOL    HW233092   0.206   5.094   3.873 -0.6612 -0.2576  1.5550
10551SOL     OW33093   7.427   1.611  11.507 -0.0386 -0.2435 -0.4540
10551SOL    HW133094   7.338   1.585  11.483 -0.0315 -0.2301 -0.4958
10551SOL    HW233095   7.433   1.596  11.601  0.4496 -1.8301 -0.7054
10552SOL     OW33096   3.483   2.990   5.500  0.0835  1.0691  0.2070
10552SOL    HW133097   3.459   2.990   5.407  0.3565  1.3134  0.1349
10552SOL    HW233098   3.492   2.898   5.522  1.4723  1.0366 -0.3932
10553SOL     OW33099   4.794   6.227   0.743  0.3679 -0.4349 -0.4277
10553SOL    HW133100   4.852   6.152   0.757  0.8627  0.0742  0.2952
10553SOL    HW233101   4.816   6.259   0.656  1.2051 -0.2257 -0.1464
10554SOL     OW33102   6.577   0.926   9.243 -0.1375 -0.6519 -0.2017
10554SOL    HW133103   6.663   0.917   9.200 -0.9117  0.7920 -2.2304
10554SOL    HW233104   6.598   0.961   9.329  1.3027  0.6874 -1.0318
10555SOL     OW33105   2.473   2.596   8.340  0.2840 -0.7462  0.0666
10555SOL    HW133106   2.410   2.587   8.411 -0.0768 -0.2343 -0.1872
10555SOL    HW233107   2.455   2.681   8.301  0.7726 -0.8276 -0.3582
10556SOL     OW33108   6.087   5.237   1.051 -0.1740  0.4841 -0.4188
10556SOL    HW133109   6.063   5.292   1.126 -0.7960 -0.1308 -0.1594
10556SOL    HW233110   6.081   5.296   0.975  2.0662  1.5596  0.1629
10557SOL     OW33111   5.594   4.427  12.043 -0.3202 -0.0936 -0.2867
10557SOL    HW133112   5.610   4.437  12.137 -2.5400  0.1622  0.1167
10557SOL    HW233113   5.581   4.333  12.031  0.5681 -0.1978 -0.4559
10558SOL     OW33114   6.607   4.081   6.423 -0.0586  0.0336  0.5290
10558SOL    HW133115   6.595   4.169   6.388 -1.4599  0.7936  2.7113
10558SOL    HW233116   6.536   4.030   6.385 -1.7635  0.9276  2.3296
10559SOL     OW33117   5.301   6.778   2.585  0.6692  0.3298  0.0541
10559SOL    HW133118   5.376   6.835   2.571  1.7921 -1.6184 -3.0804
10559SOL    HW233119   5.337   6.702   2.632  0.1437  0.3365  0.4827
10560SOL     OW33120   3.778   5.424   7.568 -0.5581  0.5029  0.8064
10560SOL    HW133121   3.720   5.499   7.579  0.9996  2.2885 -2.0226
10560SOL    HW233122   3.860   5.461   7.534  0.4297 -2.4343 -0.3869
10561SOL     OW33123   1.465   3.825   3.637  0.2363 -0.3673  0.4733
10561SOL    HW133124   1.448   3.847   3.728  0.7745 -0.5516  0.6187
10561SOL    HW233125   1.544   3.772   3.639 -0.6566 -1.7687  0.0644
10562SOL     OW33126   4.916   5.210  11.391 -0.1087 -0.0020 -0.3477
10562SOL    HW133127   4.834   5.230  11.435  1.6510  2.4384  2.1680
10562SOL    HW233128   4.944   5.127  11.429 -0.1401  0.5122  0.8381
10563SOL     OW33129   3.111   3.488   2.170  0.2439 -0.0357  0.7418
10563SOL    HW133130   3.125   3.405   2.124 -1.7179  0.6687 -1.3381
10563SOL    HW233131   3.039   3.470   2.231  0.4359 -0.0719  0.9606
10564SOL     OW33132   1.869   1.985  11.789 -0.2557 -0.4847  0.3888
10564SOL    HW133133   1.910   1.970  11.703 -0.3840  1.1541  0.0111
10564SOL    HW233134   1.903   1.914  11.843  1.8703 -0.1182 -0.3409
10565SOL     OW33135   4.252   6.996   6.705  0.1493 -0.6850 -0.2432
10565SOL    HW133136   4.168   6.981   6.749 -0.0927 -0.4426 -0.6116
10565SOL    HW233137   4.256   6.927   6.639  0.8390 -1.4832  0.6114
10566SOL     OW33138   5.861   0.222   5.804 -0.1969 -0.3652  0.0101
10566SOL    HW133139   5.892   0.253   5.889 -0.8602 -0.3351  0.2512
10566SOL    HW233140   5.783   0.274   5.786  0.5631  0.4006 -1.1540
10567SOL     OW33141   6.748   3.721   1.588 -0.1679 -0.0815 -0.0681
10567SOL    HW133142   6.811   3.725   1.516 -1.6033  0.3744 -1.3444
10567SOL    HW233143   6.718   3.811   1.598 -1.7233 -0.5278 -0.5169
10568SOL     OW33144   2.435   6.355  11.522 -0.6084 -0.1122 -0.0515
10568SOL    HW133145   2.487   6.431  11.497 -1.4453  1.2307  2.0047
10568SOL    HW233146   2.347   6.373  11.490 -0.7330 -0.3899  0.1231
10569SOL     OW33147   3.517   5.355   1.671 -0.2439  0.0316  0.4510
10569SOL    HW133148   3.574   5.279   1.661 -0.5068 -0.5753  2.8614
10569SOL    HW233149   3.551   5.400   1.748 -1.1871  1.3629  0.1238
10570SOL     OW33150   1.899   4.272   7.754 -0.3242 -0.4013  0.2410
10570SOL    HW133151   1.951   4.225   7.689 -0.0454  2.2621 -1.6538
10570SOL    HW233152   1.819   4.219   7.763  0.2962 -1.6615 -1.1183
10571SOL     OW33153   5.547   4.158   7.613 -0.4427 -0.3479 -0.9242
10571SOL    HW133154   5.544   4.080   7.669  0.1977  0.1623 -0.1679
10571SOL    HW233155   5.640   4.169   7.594 -0.4717  0.5485 -0.5760
10572SOL     OW33156   0.430   5.789   6.068  0.1079  0.3662 -0.1092
10572SOL    HW133157   0.416   5.696   6.081 -0.3535  0.1889 -1.7198
10572SOL    HW233158   0.523   5.802   6.086 -0.1258 -0.0958  1.6219
10573SOL     OW33159   0.020   6.958  11.808 -0.0087  0.3994 -0.6641
10573SOL    HW133160   0.009   6.899  11.882  1.1679 -0.5749 -1.2310
10573SOL    HW233161   0.084   6.914  11.752  1.9075  2.8192 -0.5019
10574SOL     OW33162   7.864   5.592   1.434  0.1025 -0.0940  0.4002
10574SOL    HW133163   7.780   5.618   1.473 -0.8868 -1.7352 -0.5086
10574SOL    HW233164   7.849   5.503   1.401  1.4994  0.4004 -1.8208
10575SOL     OW33165   5.526   0.627   3.763 -0.2730 -0.8060 -0.2802
10575SOL    HW133166   5.547   0.539   3.795  0.4414 -0.4375  0.3194
10575SOL    HW233167   5.599   0.649   3.704 -0.0309 -0.3174  0.1900
10576SOL     OW33168   3.781   0.286   6.419 -0.0596 -0.4041  0.2603
10576SOL    HW133169   3.752   0.373   6.448  0.9312  0.1531 -0.3553
10576SOL    HW233170   3.752   0.279   6.329  3.4384  1.1181 -1.1827
10577SOL     OW33171   6.254   3.195   1.948  0.0186  0.5591  0.3010
10577SOL    HW133172   6.236   3.102   1.965 -0.3673  1.0485  3.0291
10577SOL    HW233173   6.338   3.195   1.903  0.3955 -1.0837  0.9155
10578SOL     OW33174   1.335   6.712   3.022 -0.0145  0.0823 -0.7294
10578SOL    HW133175   1.429   6.706   3.039 -0.1652  2.1068  1.4395
10578SOL    HW233176   1.299   6.630   3.056  1.0250 -1.3754 -2.9106
10579SOL     OW33177   0.267   4.410  10.076 -0.5043 -0.8610  0.0050
10579SOL    HW133178   0.226   4.406  10.163 -2.1213  1.6264 -0.5415
10579SOL    HW233179   0.318   4.491  10.077  1.8193 -2.2231 -0.4840
10580SOL     OW33180   4.638   3.107  10.995 -0.0182 -0.1053  0.0620
10580SOL    HW133181   4.597   3.081  11.077  1.1182  1.4998  1.1810
10580SOL    HW233182   4.594   3.188  10.970  1.7181  1.0887  0.7460
10581SOL     OW33183   2.254   4.796   5.320  0.3588  0.5555 -0.2485
10581SOL    HW133184   2.247   4.792   5.225  1.8470  0.6256 -0.3869
10581SOL    HW233185   2.222   4.883   5.343 -1.2869  0.0607 -0.5181
10582SOL     OW33186   3.977   1.400  11.220 -0.5665  0.1824 -0.8386
10582SOL    HW133187   3.939   1.354  11.145 -0.9284 -1.3013  0.2086
10582SOL    HW233188   4.013   1.330  11.275  0.6274  1.3189 -0.1267
10583SOL     OW33189   3.689   6.878   8.021 -0.2728 -0.4007  0.2660
10583SOL    HW133190   3.620   6.870   7.955  0.6524  0.0101 -0.7846
10583SOL    HW233191   3.703   6.972   8.030  1.2480 -0.4905 -0.7595
10584SOL     OW33192   2.556   6.830   3.769  0.3965 -0.2852 -0.4520
10584SOL    HW133193   2.514   6.893   3.710 -0.2048  0.7691  1.0571
10584SOL    HW233194   2.625   6.879   3.812  0.2361 -0.7776  0.3931
10585SOL     OW33195   2.534   1.081   3.818  0.3940  0.9636 -0.1542
10585SOL    HW133196   2.570   1.165   3.846  0.4393  1.0275 -0.3960
10585SOL    HW233197   2.591   1.016   3.859 -0.2774  1.0227  0.9019
10586SOL     OW33198   2.251   2.564   6.370  0.0264  0.9117 -0.1003
10586SOL    HW133199   2.235   2.639   6.313  0.3421  2.0046  1.2310
10586SOL    HW233200   2.200   2.582   6.449  0.8950  0.2025  0.6387
10587SOL     OW33201   1.530   2.759   2.756 -0.5822  0.2223 -0.0619
10587SOL    HW133202   1.436   2.778   2.754 -0.5160  0.5470 -0.1037
10587SOL    HW233203   1.565   2.818   2.823 -0.1592  1.2229 -1.1531
10588SOL     OW33204   1.586   0.129   1.085 -0.3198 -0.5334  0.2465
10588SOL    HW133205   1.586   0.071   1.161  2.1172 -1.2282 -0.2013
10588SOL    HW233206   1.601   0.072   1.010  1.1138  0.5113 -0.3145
10589SOL     OW33207   7.935   6.056   9.665  0.0619 -0.4650 -0.0810
10589SOL    HW133208   7.906   5.965   9.664  1.9019 -1.0988  0.5612
10589SOL    HW233209   7.929   6.083   9.573  1.0931 -1.8062 -0.5864
10590SOL     OW33210   3.158   3.250   2.061 -0.0212 -0.0682  0.2108
10590SOL    HW133211   3.221   3.198   2.010 -0.3615  0.7313 -1.0737
10590SOL    HW233212   3.097   3.186   2.096  0.0040 -0.6138 -0.7191
10591SOL     OW33213   3.652   5.661   3.130 -0.3738  0.1037 -0.3599
10591SOL    HW133214   3.715   5.711   3.181 -0.9840  0.8489 -0.3162
10591SOL    HW233215   3.569   5.707   3.143 -0.7364 -0.3013 -1.1824
10592SOL     OW33216   4.886   0.335   6.675  0.2079  0.8288 -1.0088
10592SOL    HW133217   4.793   0.344   6.657  0.3832 -0.3868 -2.8264
10592SOL    HW233218   4.905   0.402   6.740 -1.8367  1.3779 -0.9218
10593SOL     OW33219   3.031   4.508   4.983 -0.0051  0.0520  0.4350
10593SOL    HW133220   2.970   4.578   5.004  0.0299 -0.5673  2.9766
10593SOL    HW233221   2.976   4.438   4.948 -0.4570  0.2840  0.6711
10594SOL     OW33222   5.664   2.130   8.686  0.0662 -0.5021 -0.0773
10594SOL    HW133223   5.663   2.133   8.781  0.6286 -0.2051 -0.0760
10594SOL    HW233224   5.694   2.217   8.659 -1.7433  0.0054 -0.5763
10595SOL     OW33225   2.241   3.417   1.902 -0.1106 -0.5081  0.0859
10595SOL    HW133226   2.213   3.448   1.816  0.6783 -0.7170 -0.2575
10595SOL    HW233227   2.254   3.322   1.890 -0.4636 -0.6194  0.5638
10596SOL     OW33228   3.111   2.860   1.158  0.0469  0.3448  0.2488
10596SOL    HW133229   3.198   2.863   1.198  0.3484 -3.0452  0.1729
10596SOL    HW233230   3.127   2.871   1.064  0.5810 -1.2418  0.1261
10597SOL     OW33231   6.392   4.137   0.413 -0.1379 -0.4947 -0.3114
10597SOL    HW133232   6.426   4.080   0.482 -1.8357 -1.0190  0.1257
10597SOL    HW233233   6.330   4.194   0.458 -0.9014 -0.5098 -1.3300
10598SOL     OW33234   5.005   2.658   2.068  0.8037  0.4021  0.1040
10598SOL    HW133235   4.977   2.743   2.102  0.9986  0.8849 -0.9076
10598SOL    HW233236   5.040   2.677   1.981 -2.6856 -1.1702 -1.8343
10599SOL     OW33237   1.469   4.414  11.089  0.6256  0.4221 -0.4474
10599SOL    HW133238   1.562   4.420  11.112  0.8670 -1.2935 -0.8538
10599SOL    HW233239   1.454   4.321  11.072 -0.8018  0.8789 -1.9641
10600SOL     OW33240   6.265   6.653   0.002 -0.0910  0.4841 -0.0500
10600SOL    HW133241   6.223   6.567  -0.003  2.3095 -0.7516 -0.4163
10600SOL    HW233242   6.279   6.677  -0.090 -4.8192  3.5903 -0.3201
10601SOL     OW33243   3.612   2.654   6.433  0.1153 -0.0434  0.3101
10601SOL    HW133244   3.537   2.710   6.416  1.6420  1.9367 -0.2337
10601SOL    HW233245   3.646   2.682   6.518  2.2868  1.6462 -0.9900
10602SOL     OW33246   2.155   0.995   7.694 -0.1305  0.9598  0.6713
10602SOL    HW133247   2.194   0.963   7.775  2.1816 -1.5178 -1.2510
10602SOL    HW233248   2.214   1.065   7.666  0.9699 -0.3435 -0.4024
10603SOL     OW33249   5.253   6.853   6.387  0.3586  0.3047 -0.2588
10603SOL    HW133250   5.321   6.849   6.320 -0.8597 -0.9398 -1.4972
10603SOL    HW233251   5.204   6.771   6.376  0.0210  0.1270  2.0821
10604SOL     OW33252   0.156   6.132   1.288  0.1037 -0.3007  0.1903
10604SOL    HW133253   0.105   6.202   1.328  1.7877  0.9055  0.3703
10604SOL    HW233254   0.212   6.177   1.224  1.5996 -1.3874  0.6691
10605SOL     OW33255   1.932   2.955   6.860  0.0985 -0.0968  0.3571
10605SOL    HW133256   1.928   3.047   6.889 -0.2455  0.3576 -1.0484
10605SOL    HW233257   1.878   2.953   6.781  0.2018 -1.4989  0.3058
10606SOL     OW33258   6.865   7.517   8.684 -0.6374  0.0019  0.1007
10606SOL    HW133259   6.771   7.497   8.691 -0.8610  1.3444  1.4637
10606SOL    HW233260   6.868   7.601   8.637 -0.3836  1.4892  2.5644
10607SOL     OW33261   3.165   2.207   2.925  1.0222 -0.6802  0.0332
10607SOL    HW133262   3.130   2.248   2.847  1.1207  0.2669  0.4750
10607SOL    HW233263   3.180   2.116   2.900 -0.7222 -0.8539 -0.4890
10608SOL     OW33264   7.345   5.656   5.592 -0.5309 -0.1928 -0.5609
10608SOL    HW133265   7.435   5.625   5.582 -0.4434 -0.1780  0.1449
10608SOL    HW233266   7.322   5.637   5.683 -0.5867  1.5175 -0.1709
10609SOL     OW33267   0.562   6.508  11.168  0.0654  0.6415 -0.3758
10609SOL    HW133268   0.624   6.477  11.235 -1.5991  0.1161  0.9985
10609SOL    HW233269   0.599   6.592  11.138  1.0338  0.7307  0.9769
10610SOL     OW33270   6.262   4.235   2.002 -0.3278  0.4604 -0.4444
10610SOL    HW133271   6.344   4.281   2.021 -0.4250  0.3675  0.1894
10610SOL    HW233272   6.206   4.303   1.964 -1.5568  1.7156  3.2275
10611SOL     OW33273   7.139   1.341  10.405 -0.5156 -0.3395  0.0336
10611SOL    HW133274   7.074   1.400  10.366  1.0300  0.8298 -0.9391
10611SOL    HW233275   7.190   1.310  10.330  0.8004 -0.2368  0.8531
10612SOL     OW33276   1.634   6.395  10.004  0.0028 -0.3775 -0.4476
10612SOL    HW133277   1.692   6.434  10.069 -1.3041  0.3280  0.3485
10612SOL    HW233278   1.560   6.456   9.999 -0.3867 -0.9299 -1.8733
10613SOL     OW33279   6.269   2.950   0.060 -0.4271  0.3512 -0.1858
10613SOL    HW133280   6.239   2.879   0.117 -0.1346 -0.0367 -0.5072
10613SOL    HW233281   6.208   2.949  -0.014 -0.5945  0.6232 -0.0524
10614SOL     OW33282   6.315   3.559   0.618 -0.1198  0.3390 -0.6708
10614SOL    HW133283   6.255   3.529   0.550 -2.2145  0.6856  0.9243
10614SOL    HW233284   6.379   3.613   0.571 -0.5722 -0.6507 -2.5466
10615SOL     OW33285   1.367   4.638   6.442 -0.7834 -0.0256  0.3447
10615SOL    HW133286   1.314   4.579   6.495  1.6235 -0.8581  2.0338
10615SOL    HW233287   1.432   4.673   6.504 -0.0604  1.8141 -1.3359
10616SOL     OW33288   3.133   5.995  11.429 -0.0035  0.1974 -0.3770
10616SOL    HW133289   3.142   5.955  11.342 -0.0681  0.2527 -0.4092
10616SOL    HW233290   3.056   5.952  11.467 -0.5241  0.8137 -0.7006
10617SOL     OW33291   0.874   0.059   0.951 -0.0254 -0.1464  0.3921
10617SOL    HW133292   0.813   0.131   0.966 -2.0538 -1.7696  0.3885
10617SOL    HW233293   0.934   0.092   0.883 -1.7297  1.0777 -0.6010
10618SOL     OW33294   3.494   1.222   8.713 -0.5842 -0.5444 -0.0550
10618SOL    HW133295   3.436   1.151   8.741  1.0374 -1.3887  1.3585
10618SOL    HW233296   3.508   1.206   8.620  0.1969 -2.4914  0.3348
10619SOL     OW33297   1.820   1.270   4.671  0.3653  0.3570 -0.2211
10619SOL    HW133298   1.767   1.338   4.629 -0.6458 -0.5946 -0.5298
10619SOL    HW233299   1.907   1.310   4.682 -0.2478  1.7404 -0.2456
10620SOL     OW33300   6.384   2.005  12.137  0.1142  0.2153  0.2058
10620SOL    HW133301   6.405   1.955  12.216  0.5553 -1.8855 -1.1649
10620SOL    HW233302   6.311   1.958  12.097 -0.4029  1.5097 -0.4072
10621SOL     OW33303   3.398   6.243  12.386 -0.1598  0.0716  0.3828
10621SOL    HW133304   3.367   6.153  12.379 -1.1502 -0.0132  3.8650
10621SOL    HW233305   3.479   6.237  12.438  0.3420  1.1389 -0.2247
10622SOL     OW33306   3.843   6.645  10.429  0.2565 -0.0699  0.2696
10622SOL    HW133307   3.890   6.572  10.469 -1.0530 -0.5985  0.9009
10622SOL    HW233308   3.909   6.713  10.417  1.4080 -1.1854  0.0865
10623SOL     OW33309   1.970   1.581   5.816 -0.3346  0.2646 -0.1991
10623SOL    HW133310   1.875   1.592   5.809 -0.4180  0.7742  1.3802
10623SOL    HW233311   2.006   1.642   5.751 -1.0670  1.0908  0.1539
10624SOL     OW33312   3.916   1.475   4.801 -0.4789 -0.6588 -0.2825
10624SOL    HW133313   3.858   1.445   4.871 -0.5031 -0.7519 -0.3421
10624SOL    HW233314   3.865   1.465   4.721 -0.0039 -1.7993 -0.4649
10625SOL     OW33315   7.546   3.109   9.482 -0.0408  0.2666  0.1458
10625SOL    HW133316   7.555   3.023   9.440 -2.8320  0.2050 -0.5108
10625SOL    HW233317   7.566   3.093   9.574 -1.7942 -1.4719  0.3045
10626SOL     OW33318   7.308   1.990  10.963 -0.2645 -0.2166  0.3411
10626SOL    HW133319   7.389   2.038  10.947  0.5176 -1.3462  0.7914
10626SOL    HW233320   7.310   1.917  10.901 -1.1681  0.0073  0.0319
10627SOL     OW33321   0.229   1.672   1.606  0.3040  0.4556  0.0216
10627SOL    HW133322   0.141   1.669   1.569  0.3563  0.2075 -0.0826
10627SOL    HW233323   0.287   1.677   1.530  0.4131 -0.0858  0.0697
10628SOL     OW33324   0.078   3.108  11.108 -0.0785 -0.3775  0.0858
10628SOL    HW133325   0.042   3.158  11.034  1.9703  2.0873  0.6142
10628SOL    HW233326   0.031   3.141  11.184  0.1795 -0.3929  0.2534
10629SOL     OW33327   3.851   0.085   9.873  0.1106  0.2790 -0.3496
10629SOL    HW133328   3.927   0.064   9.820  1.0638 -1.4438  1.5667
10629SOL    HW233329   3.881   0.155   9.931  0.0053  0.1118 -0.0918
10630SOL     OW33330   7.093   5.045  11.416 -0.1264  0.4014  0.4617
10630SOL    HW133331   7.081   4.982  11.488  0.4306  1.3237  1.4018
10630SOL    HW233332   7.017   5.102  11.421  0.4268  1.1179  1.0341
10631SOL     OW33333   4.075   7.909   4.875 -0.3910  0.5388 -0.2496
10631SOL    HW133334   4.019   7.873   4.944 -2.2341  0.8613 -1.4947
10631SOL    HW233335   4.119   7.833   4.838 -0.5192  0.1815  0.3204
10632SOL     OW33336   1.363   4.481   1.700 -0.4598  0.2480 -0.2334
10632SOL    HW133337   1.373   4.395   1.741  0.8886  0.6809  0.4035
10632SOL    HW233338   1.293   4.468   1.635 -3.4023 -0.2528  2.7557
10633SOL     OW33339   3.342   0.751   2.056  0.8099  0.4857  0.0663
10633SOL    HW133340   3.395   0.755   1.976  2.2811  1.5727  1.0395
10633SOL    HW233341   3.388   0.691   2.113  0.9142  1.3112  0.8680
10634SOL     OW33342   4.546   0.547   1.938 -0.4224  0.0383  0.1259
10634SOL    HW133343   4.481   0.536   2.008  0.7836 -2.4339  0.9774
10634SOL    HW233344   4.499   0.520   1.859 -1.0111  0.1913  0.4126
10635SOL     OW33345   1.778   7.188   7.660  0.1732  0.3282  0.3212
10635SOL    HW133346   1.755   7.205   7.751  0.7128  0.7791  0.3814
10635SOL    HW233347   1.697   7.159   7.619 -0.2709  0.9435  0.7541
10636SOL     OW33348   2.794   1.314   0.647  0.2584 -0.4883  0.8256
10636SOL    HW133349   2.811   1.385   0.708 -1.0965 -0.7046  1.4887
10636SOL    HW233350   2.702   1.293   0.658  0.3996 -1.7404 -0.0168
10637SOL     OW33351   1.708   4.202   9.621  0.2075 -0.5266 -0.0212
10637SOL    HW133352   1.793   4.157   9.620  0.1610 -0.6157  0.0337
10637SOL    HW233353   1.690   4.221   9.529  2.1738  3.0639  0.1321
10638SOL     OW33354   6.544   7.223   3.333 -0.3278  0.6929 -0.2978
10638SOL    HW133355   6.579   7.236   3.245  0.6826  0.1529  0.0032
10638SOL    HW233356   6.498   7.139   3.328 -0.5049  0.7942 -0.3773
10639SOL     OW33357   2.372   7.303   6.780  0.0004  0.4297  0.4165
10639SOL    HW133358   2.365   7.254   6.862  1.4239  1.5431  1.2357
10639SOL    HW233359   2.284   7.298   6.742 -0.4399 -0.9187  1.5192
10640SOL     OW33360   0.893   6.316   8.062 -0.2819  0.3362  0.5037
10640SOL    HW133361   0.815   6.371   8.075 -0.5768  0.2764 -0.8400
10640SOL    HW233362   0.872   6.234   8.105 -0.1580  0.9905  1.8514
10641SOL     OW33363   6.480   4.881   1.148 -0.3526 -0.0933  0.3293
10641SOL    HW133364   6.427   4.845   1.077  0.2886  1.6148 -1.1114
10641SOL    HW233365   6.435   4.962   1.172  0.4363  0.2826  0.5704
10642SOL     OW33366   5.617   2.834   9.093 -0.0114  0.3955 -0.2717
10642SOL    HW133367   5.687   2.890   9.127 -0.2068  0.6000 -0.2011
10642SOL    HW233368   5.538   2.868   9.134 -0.2958  0.8298 -1.1604
10643SOL     OW33369   7.746   5.362  11.091 -0.3264 -0.4285 -0.4934
10643SOL    HW133370   7.657   5.328  11.086 -0.4598 -0.0174 -0.9301
10643SOL    HW233371   7.762   5.372  11.185 -0.1266 -2.0750 -0.3275
10644SOL     OW33372   1.034   4.186   9.896 -0.5861  0.9407  0.2583
10644SOL    HW133373   1.003   4.096   9.905 -0.8442  1.0705  0.6748
10644SOL    HW233374   0.974   4.226   9.834 -0.7243  0.9426  0.3913
10645SOL     OW33375   4.060   0.419   1.540 -0.4044  0.8559 -0.4368
10645SOL    HW133376   4.014   0.378   1.614  0.3185  0.3419 -0.2599
10645SOL    HW233377   4.017   0.383   1.463 -1.3177  1.5723 -0.2739
10646SOL     OW33378   7.377   3.857   7.329  0.7219  0.0955  0.1723
10646SOL    HW133379   7.299   3.833   7.378  0.2478 -0.1516 -0.6809
10646SOL    HW233380   7.435   3.782   7.337  0.7145  0.1209  0.4773
10647SOL     OW33381   2.360   1.346   0.272 -0.1005 -0.3669 -0.0822
10647SOL    HW133382   2.270   1.340   0.303 -0.1110 -0.2446 -0.0897
10647SOL    HW233383   2.397   1.422   0.317  0.6808 -1.7111  1.6504
10648SOL     OW33384   5.822   7.635   8.340  0.7446  1.5382 -0.4100
10648SOL    HW133385   5.808   7.723   8.376 -0.7815  1.4681 -0.7572
10648SOL    HW233386   5.799   7.576   8.412  0.2127  1.4171 -0.6780
10649SOL     OW33387   0.178   5.294   1.368 -0.1811  0.0849  0.1988
10649SOL    HW133388   0.175   5.377   1.319  0.1451 -1.0717 -1.9149
10649SOL    HW233389   0.086   5.273   1.384 -0.2588  0.9795  1.0073
10650SOL     OW33390   2.141   6.450   9.970 -0.8787  0.5353 -0.0098
10650SOL    HW133391   2.095   6.534   9.979  0.9165  1.4271  1.2712
10650SOL    HW233392   2.121   6.403  10.051 -0.3524  0.5000  0.0985
10651SOL     OW33393   2.833   3.889   2.280 -0.0552 -0.2299  0.3184
10651SOL    HW133394   2.769   3.895   2.351  0.8592 -1.7933  1.3632
10651SOL    HW233395   2.781   3.885   2.200 -1.2276 -0.6142  1.0730
10652SOL     OW33396   5.234   5.829  12.380 -0.2142  0.2882  0.1568
10652SOL    HW133397   5.205   5.776  12.305  2.8301  1.2990 -1.9558
10652SOL    HW233398   5.155   5.875  12.409 -1.4085  0.6889 -3.2155
10653SOL     OW33399   5.225   4.773  11.751 -0.2213  0.6861 -0.8659
10653SOL    HW133400   5.248   4.682  11.733  1.2129  0.3942  1.8710
10653SOL    HW233401   5.129   4.775  11.747 -0.3635 -1.2915  0.3151
10654SOL     OW33402   4.608   1.011   4.246  0.0995 -0.1541  0.3784
10654SOL    HW133403   4.547   1.020   4.319 -0.3513 -0.4582  0.0468
10654SOL    HW233404   4.628   0.917   4.241 -0.3267 -0.2196 -0.2434
10655SOL     OW33405   5.010   7.510   0.156 -0.1543  0.0846  0.4079
10655SOL    HW133406   4.934   7.483   0.207 -0.6227  0.7277  0.0810
10655SOL    HW233407   4.975   7.523   0.067  0.5733 -0.7054 -0.0074
10656SOL     OW33408   6.668   0.583   6.333 -0.0941 -0.4502 -0.3304
10656SOL    HW133409   6.736   0.523   6.360  1.1005  1.1342  0.3659
10656SOL    HW233410   6.688   0.665   6.379 -0.8978  0.8683 -2.1760
10657SOL     OW33411   4.810   2.613  10.977  0.0325 -0.7537 -0.0518
10657SOL    HW133412   4.883   2.568  10.935  0.7271 -0.2192  0.5592
10657SOL    HW233413   4.851   2.678  11.033 -0.9391  0.3290 -0.5550
10658SOL     OW33414   3.823   4.838   2.704 -0.1583 -0.0194 -0.0994
10658SOL    HW133415   3.806   4.931   2.718 -0.0359  0.0974 -0.7138
10658SOL    HW233416   3.805   4.823   2.611  0.3139 -0.5008 -0.1219
10659SOL     OW33417   0.246   2.712   2.633  0.2600 -0.5258 -0.1748
10659SOL    HW133418   0.321   2.669   2.675  1.5419  1.5410 -0.2225
10659SOL    HW233419   0.247   2.679   2.544  1.8327  0.2606 -0.4913
10660SOL     OW33420   5.873   5.244   2.336 -0.0241  0.1028  0.1584
10660SOL    HW133421   5.883   5.262   2.242  0.1346 -1.7693 -0.2418
10660SOL    HW233422   5.957   5.206   2.362  0.2893  1.5113  1.3375
10661SOL     OW33423   7.405   7.385   3.659 -0.5959  0.0810  0.0362
10661SOL    HW133424   7.450   7.393   3.575 -0.2879 -1.9386 -0.0507
10661SOL    HW233425   7.469   7.341   3.716 -2.3286 -2.8420 -0.0637
10662SOL     OW33426   4.015   3.074   5.722  0.0029 -0.0626 -0.5104
10662SOL    HW133427   3.955   3.132   5.769  0.4635  0.1168 -0.1385
10662SOL    HW233428   3.959   3.006   5.684 -0.5646  0.6772 -1.0361
10663SOL     OW33429   3.868   1.310   6.187 -0.4682  0.2090 -0.0431
10663SOL    HW133430   3.817   1.336   6.264 -2.7297 -1.0428 -1.0464
10663SOL    HW233431   3.939   1.256   6.222 -0.4475  1.0496  1.2867
10664SOL     OW33432   7.315   4.550   0.695 -0.4405  0.2870 -0.1664
10664SOL    HW133433   7.270   4.617   0.643 -1.2936 -0.8667 -0.9695
10664SOL    HW233434   7.403   4.548   0.658 -0.1992  1.4023  0.3009
10665SOL     OW33435   5.322   1.971   6.598  0.0383 -0.4969  0.1413
10665SOL    HW133436   5.376   1.966   6.677 -2.0411 -1.4879  1.6057
10665SOL    HW233437   5.237   2.000   6.630 -0.9032 -1.0737 -1.7308
10666SOL     OW33438   2.371   3.276   5.455 -0.2659 -0.1162  0.0461
10666SOL    HW133439   2.281   3.261   5.484 -0.6171  0.1010 -0.9238
10666SOL    HW233440   2.414   3.192   5.469 -0.8931 -0.5309 -0.4738
10667SOL     OW33441   2.172   4.753   9.808  0.4809  0.2553 -0.0147
10667SOL    HW133442   2.264   4.767   9.829  0.0464  0.9274  1.5935
10667SOL    HW233443   2.147   4.676   9.859  0.6330 -1.1798 -2.0212
10668SOL     OW33444   6.708   0.996   1.495 -0.4855 -0.6243 -0.3720
10668SOL    HW133445   6.665   0.915   1.522 -0.6688  0.1001  1.6417
10668SOL    HW233446   6.801   0.983   1.515 -0.6284 -0.0643  0.7252
10669SOL     OW33447   2.382   5.287   2.291 -0.1489  0.3715  0.0067
10669SOL    HW133448   2.446   5.337   2.242  1.0431 -1.0945 -0.0123
10669SOL    HW233449   2.398   5.196   2.266 -1.5262 -0.1271  0.8203
10670SOL     OW33450   3.925   5.177  10.405  0.1873  0.2948 -0.3041
10670SOL    HW133451   3.993   5.153  10.468 -0.3413  1.1539  0.6369
10670SOL    HW233452   3.852   5.119  10.426  0.2896  0.0348 -0.6655
10671SOL     OW33453   5.787   4.586   9.796 -0.2583 -0.3734 -0.4289
10671SOL    HW133454   5.876   4.618   9.812 -1.0401  1.8645 -0.1583
10671SOL    HW233455   5.748   4.579   9.883 -1.1237  1.2360 -0.6398
10672SOL     OW33456   7.338   1.384   6.516  0.9716  0.1618 -0.0168
10672SOL    HW133457   7.290   1.369   6.435 -2.4249  0.4623  1.7646
10672SOL    HW233458   7.424   1.345   6.501 -0.3994 -2.1024 -2.8095
10673SOL     OW33459   3.474   4.852   7.857 -0.3914  0.0879  0.1840
10673SOL    HW133460   3.543   4.889   7.912 -0.6651 -0.9487  1.2714
10673SOL    HW233461   3.460   4.918   7.789 -0.6943  1.8943  1.8781
10674SOL     OW33462   2.554   2.251   5.274  0.5289  0.6502 -0.3145
10674SOL    HW133463   2.626   2.189   5.286 -1.4922 -1.6177  1.4197
10674SOL    HW233464   2.540   2.288   5.361 -0.9453  0.2865 -0.3587
10675SOL     OW33465   7.157   1.033   5.768 -0.0869  0.2508 -0.3312
10675SOL    HW133466   7.110   0.950   5.761 -0.3140  0.3090  0.4307
10675SOL    HW233467   7.147   1.073   5.682  1.3278 -1.1805 -1.2353
10676SOL     OW33468   5.380   2.474   9.634  0.0373  0.4082 -0.2272
10676SOL    HW133469   5.329   2.415   9.690 -2.7445 -0.4073 -3.3084
10676SOL    HW233470   5.382   2.556   9.683 -0.3480 -0.7892  1.9781
10677SOL     OW33471   5.573   2.361  10.225 -0.9377  0.3008 -0.2840
10677SOL    HW133472   5.478   2.368  10.213 -1.2942 -0.9420  1.3973
10677SOL    HW233473   5.597   2.281  10.179 -0.6593  0.7126 -0.8635
10678SOL     OW33474   7.922   3.161   5.283  0.2866 -0.5806 -0.1262
10678SOL    HW133475   7.949   3.070   5.288  0.6322 -0.4987 -0.4984
10678SOL    HW233476   7.982   3.207   5.341 -0.3769 -0.6924  0.6778
10679SOL     OW33477   0.499   0.960  11.750  0.4743 -0.3702  0.0767
10679SOL    HW133478   0.526   0.977  11.840 -1.2612  0.6985  0.4470
10679SOL    HW233479   0.500   1.046  11.708 -2.2517 -0.2253  0.1535
10680SOL     OW33480   6.464   5.171   7.158  0.1552  0.2152 -0.1181
10680SOL    HW133481   6.383   5.121   7.173 -1.8211  2.9988 -0.5494
10680SOL    HW233482   6.466   5.235   7.229  2.1531  0.0754 -0.0049
10681SOL     OW33483   7.342   0.745   6.794  0.0005 -0.2244 -0.0933
10681SOL    HW133484   7.405   0.805   6.755 -0.6278  0.9707  0.6970
10681SOL    HW233485   7.365   0.741   6.886 -1.6113  0.9840  0.4085
10682SOL     OW33486   4.667   4.898   1.857  0.2236  0.2553  0.1326
10682SOL    HW133487   4.728   4.830   1.886  0.6927  1.7591  3.0184
10682SOL    HW233488   4.721   4.961   1.810  0.1105 -0.4432 -0.9564
10683SOL     OW33489   7.194   7.644   6.137 -0.1270 -0.3006  0.0986
10683SOL    HW133490   7.126   7.684   6.083  0.1157 -0.6310 -0.4649
10683SOL    HW233491   7.235   7.717   6.183  0.6555  0.1942 -1.3146
10684SOL     OW33492   3.869   2.554   0.648  0.2888  0.3319 -0.0524
10684SOL    HW133493   3.880   2.538   0.742 -0.4735  0.2113  0.0234
10684SOL    HW233494   3.808   2.627   0.643 -1.0686 -0.7752 -0.4549
10685SOL     OW33495   5.505   3.065  11.960  0.1795 -0.4126 -0.5990
10685SOL    HW133496   5.537   2.992  12.013  1.2922 -0.8512 -1.8120
10685SOL    HW233497   5.551   3.056  11.876 -0.4354  1.0878 -1.1390
10686SOL     OW33498   7.968   2.768  10.105  0.0668 -0.3507  0.0588
10686SOL    HW133499   7.999   2.704  10.042 -1.3723  0.2996 -1.3910
10686SOL    HW233500   7.963   2.721  10.188  0.5858 -1.6426 -0.6287
10687SOL     OW33501   6.413   4.159   4.626  0.2559 -0.1189 -0.1022
10687SOL    HW133502   6.507   4.140   4.632  0.1916 -0.2795  0.4579
10687SOL    HW233503   6.392   4.203   4.709 -0.0069  0.6318 -0.5518
10688SOL     OW33504   5.166   6.122   5.057 -0.5231 -0.3615  0.4877
10688SOL    HW133505   5.236   6.187   5.050 -0.9499  0.0119 -0.4364
10688SOL    HW233506   5.119   6.146   5.137  0.3165 -0.5393  1.0448
10689SOL     OW33507   7.166   2.566   3.762 -0.1135  0.6064  0.6423
10689SOL    HW133508   7.234   2.504   3.789 -0.9151  0.0034  1.3331
10689SOL    HW233509   7.107   2.515   3.708 -0.2034  1.0414  0.3275
10690SOL     OW33510   1.744   2.304   2.903  0.0890  0.2476  0.5436
10690SOL    HW133511   1.695   2.348   2.834  1.0073  0.7090  0.1625
10690SOL    HW233512   1.803   2.244   2.857  0.0580 -0.1258  0.9761
10691SOL     OW33513   4.174   7.194   1.139  0.2247 -0.1592  0.0942
10691SOL    HW133514   4.238   7.185   1.209 -0.4912  0.7573  0.8843
10691SOL    HW233515   4.195   7.123   1.078  0.4201 -1.4249  1.5653
10692SOL     OW33516   4.084   3.000   3.537  0.2113  0.6882  0.1111
10692SOL    HW133517   4.153   2.949   3.494 -0.7689  0.8905 -1.8453
10692SOL    HW233518   4.116   3.016   3.626  2.7058  0.8480 -0.7499
10693SOL     OW33519   6.146   1.678   1.777  0.1412 -0.1009 -0.0219
10693SOL    HW133520   6.118   1.769   1.764 -1.0326 -0.5960 -1.0509
10693SOL    HW233521   6.198   1.658   1.699  0.9751 -0.1234  0.5215
10694SOL     OW33522   3.460   7.309   1.702  1.0725  0.3686  0.5841
10694SOL    HW133523   3.409   7.389   1.687  0.0850 -0.2841  0.3639
10694SOL    HW233524   3.542   7.324   1.656  0.2501  0.6126 -0.8811
10695SOL     OW33525   1.358   7.622   1.628 -0.0833 -0.4440  0.4955
10695SOL    HW133526   1.396   7.621   1.716  2.3555  1.3824 -0.4354
10695SOL    HW233527   1.404   7.553   1.581 -2.0391 -2.0543  0.8176
10696SOL     OW33528   3.369   0.581  12.073 -0.0694 -0.0070  0.0528
10696SOL    HW133529   3.324   0.664  12.061  0.1068 -0.0102 -0.6492
10696SOL    HW233530   3.311   0.516  12.034  0.2091 -0.1018 -0.2037
10697SOL     OW33531   5.898   2.461   5.847  0.3719 -0.2564  0.6501
10697SOL    HW133532   5.810   2.468   5.883  0.9636  0.0929  2.1044
10697SOL    HW233533   5.928   2.374   5.874 -0.8808 -2.0678 -3.1671
10698SOL     OW33534   6.784   6.889  10.451  0.3865 -0.1814  0.2880
10698SOL    HW133535   6.748   6.828  10.387 -1.6267  1.7779 -0.5714
10698SOL    HW233536   6.860   6.928  10.408 -0.5200  0.5861 -0.6475
10699SOL     OW33537   3.015   1.831   1.881 -0.2538 -0.2384 -0.3521
10699SOL    HW133538   3.006   1.903   1.944 -0.7190  2.3056 -3.0791
10699SOL    HW233539   2.942   1.772   1.901 -1.4557  1.4222  0.4101
10700SOL     OW33540   6.251   1.050   6.540 -0.7854 -0.2324 -0.4900
10700SOL    HW133541   6.206   1.024   6.620 -2.2692  1.0312 -0.8826
10700SOL    HW233542   6.308   0.975   6.520  0.4230 -0.1552  2.2762
10701SOL     OW33543   3.820   3.547   3.842  0.0725  0.5221 -0.3748
10701SOL    HW133544   3.828   3.457   3.812 -0.2121 -0.4630  2.2447
10701SOL    HW233545   3.768   3.541   3.923  1.2733  2.8466  0.6691
10702SOL     OW33546   1.150   3.085   2.781  0.2341  0.7356  0.3810
10702SOL    HW133547   1.073   3.035   2.807  1.6291 -1.1560  1.2236
10702SOL    HW233548   1.176   3.047   2.697  0.1019  1.5611 -0.0443
10703SOL     OW33549   2.174   3.211   9.170  0.3369 -0.5501  0.0556
10703SOL    HW133550   2.147   3.301   9.153 -1.0931 -1.2293 -1.5098
10703SOL    HW233551   2.267   3.209   9.146  0.1329  0.2576 -0.8426
10704SOL     OW33552   7.224   1.568   2.800 -0.2404  0.1656 -0.0543
10704SOL    HW133553   7.306   1.596   2.840 -2.5827  2.3054  3.8750
10704SOL    HW233554   7.175   1.649   2.787 -2.0687 -1.0928 -1.6019
10705SOL     OW33555   0.580   7.645  10.826 -0.7449 -0.7799  0.0472
10705SOL    HW133556   0.668   7.609  10.837 -0.9068 -0.9068  1.1005
10705SOL    HW233557   0.523   7.569  10.818 -0.7172 -0.6923 -1.1109
10706SOL     OW33558   0.696   7.723   8.333 -0.3319 -0.4505  0.0803
10706SOL    HW133559   0.700   7.717   8.428  0.2445  0.7745  0.1587
10706SOL    HW233560   0.785   7.746   8.307 -0.8192  0.7305 -0.6070
10707SOL     OW33561   0.063   3.007   6.063 -0.0318 -0.4141  0.0717
10707SOL    HW133562  -0.001   3.072   6.036  0.4556 -0.3089 -0.8958
10707SOL    HW233563   0.075   3.021   6.157 -0.8731  0.0424  0.1158
10708SOL     OW33564   6.777   7.627   3.333 -0.0532  0.3578  0.5948
10708SOL    HW133565   6.827   7.690   3.385 -0.2082  0.8791  0.1242
10708SOL    HW233566   6.837   7.599   3.264 -0.2158  0.5304  0.3821
10709SOL     OW33567   6.751   5.474   1.622  0.0837  0.2477  0.4547
10709SOL    HW133568   6.708   5.499   1.540  0.0410 -0.9578  0.0873
10709SOL    HW233569   6.841   5.453   1.597  0.0142 -0.3391  0.6644
10710SOL     OW33570   6.490   2.486   4.414  0.0158  0.0016  0.0575
10710SOL    HW133571   6.512   2.533   4.494  0.5314  0.7395 -0.5027
10710SOL    HW233572   6.429   2.543   4.367  1.7954  0.8752 -1.3359
10711SOL     OW33573   0.017   5.974   7.260  0.0607  0.0011  0.0668
10711SOL    HW133574  -0.041   5.898   7.256 -0.4660  0.3005  1.3481
10711SOL    HW233575  -0.040   6.048   7.240  0.1625  0.2182  0.5636
10712SOL     OW33576   0.809   7.928  11.181  0.1728 -0.2080 -0.3663
10712SOL    HW133577   0.775   7.839  11.191 -0.7120  0.1260 -0.3036
10712SOL    HW233578   0.754   7.981  11.239 -1.7874  0.9764 -3.0561
10713SOL     OW33579   4.121   3.914   6.462  0.7848  0.4570 -0.5513
10713SOL    HW133580   4.099   3.986   6.521 -1.4813 -1.6992  1.4741
10713SOL    HW233581   4.039   3.893   6.418  1.2015 -1.3344 -0.5477
10714SOL     OW33582   5.695   1.726   7.150  0.2760 -0.0824  0.2741
10714SOL    HW133583   5.644   1.770   7.082  0.2032 -1.1135 -0.3676
10714SOL    HW233584   5.786   1.751   7.131  0.2555 -0.3564 -0.2116
10715SOL     OW33585   2.268   7.708   8.928  0.1898  0.0068 -0.0718
10715SOL    HW133586   2.287   7.641   8.994 -2.3186  1.4824  2.3893
10715SOL    HW233587   2.348   7.761   8.924  0.6551 -0.5352  1.3008
10716SOL     OW33588   0.492   4.850   6.936  0.3870 -0.1332  0.1295
10716SOL    HW133589   0.583   4.839   6.909  0.2231  1.3203 -1.1329
10716SOL    HW233590   0.442   4.796   6.875  0.3644 -0.6648  0.6107
10717SOL     OW33591   3.663   0.961   7.848 -0.0188  0.4684 -0.1877
10717SOL    HW133592   3.671   0.897   7.918 -0.9289 -1.9385 -2.1069
10717SOL    HW233593   3.749   0.961   7.805 -0.1157  0.2449 -0.3872
10718SOL     OW33594   7.907   5.468   2.147 -0.0801 -0.2227  0.0627
10718SOL    HW133595   7.973   5.438   2.210 -0.7204 -0.3286  0.6910
10718SOL    HW233596   7.828   5.482   2.200 -1.1177 -1.8953 -0.9786
10719SOL     OW33597   1.869   2.178   9.698  0.2938 -0.0136  0.3043
10719SOL    HW133598   1.888   2.156   9.607  0.3428 -0.0203  0.3160
10719SOL    HW233599   1.955   2.182   9.740  0.2936  0.3009  0.2796
10720SOL     OW33600   5.218   5.766   6.853  0.1058 -0.5696  0.3662
10720SOL    HW133601   5.145   5.828   6.861  0.6585  0.1270  0.0723
10720SOL    HW233602   5.259   5.787   6.769  0.4206 -1.2066  0.3541
10721SOL     OW33603   2.925   2.938   9.975 -0.4095 -0.2687 -0.2208
10721SOL    HW133604   2.836   2.964   9.998 -0.0751  1.4789 -0.8141
10721SOL    HW233605   2.936   2.967   9.885  0.8987 -0.1127 -0.0260
10722SOL     OW33606   1.986   3.846   7.960  0.6462  0.1162  0.1758
10722SOL    HW133607   1.956   3.863   7.871 -2.0056 -0.4343  0.8879
10722SOL    HW233608   2.023   3.758   7.956  3.3226  1.1809 -0.9349
10723SOL     OW33609   2.397   1.373   8.993  0.4841 -0.2374 -0.6309
10723SOL    HW133610   2.475   1.353   9.045 -0.3965 -0.4655  0.6407
10723SOL    HW233611   2.374   1.289   8.952  0.5830 -0.3007 -0.5571
10724SOL     OW33612   0.052   6.375   8.260  0.0742  0.2807  0.1168
10724SOL    HW133613   0.093   6.304   8.208 -1.1300 -0.7475  0.5232
10724SOL    HW233614   0.111   6.449   8.248  0.6588 -0.3731 -1.4711
10725SOL     OW33615   0.707   5.992  10.758 -0.4178 -0.2223 -0.0818
10725SOL    HW133616   0.764   6.064  10.784 -1.5090  0.6348  0.0140
10725SOL    HW233617   0.715   5.990  10.662  0.3832 -0.6354 -0.0103
10726SOL     OW33618   2.978   7.751  11.533 -0.4044  0.1205 -0.4298
10726SOL    HW133619   2.890   7.715  11.520  0.1581 -1.7662  0.6229
10726SOL    HW233620   3.023   7.686  11.587  1.6025  1.1046 -0.8123
10727SOL     OW33621   5.539   3.740   9.786  0.1550 -0.4926 -0.1586
10727SOL    HW133622   5.532   3.730   9.691  0.5968 -0.0378 -0.2457
10727SOL    HW233623   5.633   3.732   9.805  0.1840  0.3667  0.1162
10728SOL     OW33624   7.141   4.160   9.168 -0.2436  0.4354  0.0393
10728SOL    HW133625   7.180   4.166   9.081 -1.0447  3.6842 -0.2132
10728SOL    HW233626   7.051   4.191   9.156 -0.8088 -0.3977  1.8074
10729SOL     OW33627   3.917   2.983   1.739 -0.2052  0.1553 -0.4338
10729SOL    HW133628   3.935   2.989   1.645 -0.3815 -0.2469 -0.4967
10729SOL    HW233629   4.004   2.972   1.779 -0.2461 -1.3855 -0.7044
10730SOL     OW33630   2.145   5.689   4.431 -0.4537  0.4036  0.2551
10730SOL    HW133631   2.102   5.703   4.347 -0.2706  0.8305  0.2293
10730SOL    HW233632   2.187   5.773   4.451  1.0211 -0.2096 -0.1029
10731SOL     OW33633   4.870   5.395   6.798  0.1706  0.0612  0.1510
10731SOL    HW133634   4.815   5.372   6.872 -1.2551  0.0841 -0.8727
10731SOL    HW233635   4.939   5.328   6.798 -1.2405 -1.4413  0.0198
10732SOL     OW33636   5.282   7.886   3.813  0.0614 -0.4853 -0.5758
10732SOL    HW133637   5.322   7.974   3.813  0.3683 -0.6223 -0.9349
10732SOL    HW233638   5.258   7.871   3.722  1.1463 -1.2771 -0.7584
10733SOL     OW33639   2.285   7.404   8.211 -0.0306 -0.1020  0.8503
10733SOL    HW133640   2.261   7.392   8.119  0.5932  1.1178  0.5008
10733SOL    HW233641   2.356   7.341   8.225  0.7160  0.5444  0.1200
10734SOL     OW33642   1.401   3.974   7.198 -0.8754  0.1772 -0.0070
10734SOL    HW133643   1.328   4.021   7.240 -3.0325 -3.4005  0.6552
10734SOL    HW233644   1.436   3.919   7.267 -0.6000 -1.5186 -1.4437
10735SOL     OW33645   2.889   7.418   9.590 -0.0353 -0.1179  0.0078
10735SOL    HW133646   2.934   7.366   9.657  2.6141  0.1938 -1.4265
10735SOL    HW233647   2.921   7.384   9.507 -1.0578  1.4041 -1.0705
10736SOL     OW33648   6.344   0.266  10.377 -0.3036 -0.0925  0.4529
10736SOL    HW133649   6.363   0.172  10.381 -1.9149 -0.5251 -1.1305
10736SOL    HW233650   6.369   0.292  10.289 -1.1150  0.6769  0.4416
10737SOL     OW33651   2.327   6.086   0.934 -0.0820  0.0358  0.2164
10737SOL    HW133652   2.331   6.009   0.991 -1.9640  0.0812  0.4612
10737SOL    HW233653   2.312   6.051   0.846  0.1965  0.0779  0.1515
10738SOL     OW33654   0.745   2.656   7.137  0.4207  0.2073  0.0071
10738SOL    HW133655   0.671   2.681   7.192 -0.4190 -0.9273 -0.5732
10738SOL    HW233656   0.808   2.619   7.199  0.4983  1.1106  0.4940
10739SOL     OW33657   3.445   4.409  11.369  0.4839 -0.3726  0.1898
10739SOL    HW133658   3.351   4.408  11.385  0.5560 -0.6245  0.6067
10739SOL    HW233659   3.484   4.385  11.453  0.8806 -1.5124 -0.2977
10740SOL     OW33660   3.374   6.999  10.120  0.8181  0.3980 -0.0510
10740SOL    HW133661   3.373   6.935  10.191  1.2973 -0.5890 -0.9006
10740SOL    HW233662   3.351   7.082  10.162  0.6910 -0.2316  1.1732
10741SOL     OW33663   6.382   5.249   9.612 -0.0268 -0.1696 -0.1168
10741SOL    HW133664   6.336   5.192   9.551 -0.3209 -0.3915  0.3146
10741SOL    HW233665   6.331   5.330   9.613 -0.0562 -0.1884 -0.1140
10742SOL     OW33666   4.575   2.801   8.928  0.1922 -0.6177 -0.0580
10742SOL    HW133667   4.488   2.805   8.889  0.5262  1.0575 -0.7000
10742SOL    HW233668   4.609   2.891   8.923  1.5240 -0.9997  1.1883
10743SOL     OW33669   5.197   0.219  10.535 -0.2625 -0.5039 -0.3947
10743SOL    HW133670   5.180   0.211  10.628 -2.8663  0.4714 -0.6853
10743SOL    HW233671   5.161   0.140  10.496 -1.5484  0.2374 -0.7701
10744SOL     OW33672   5.009   7.638   7.117 -0.0836 -0.0656  0.0580
10744SOL    HW133673   5.020   7.636   7.212  1.5388  0.7218 -0.0913
10744SOL    HW233674   5.073   7.702   7.086 -0.0592 -0.8541 -1.6395
10745SOL     OW33675   6.769   6.618  10.765  0.3206  0.2090 -0.4906
10745SOL    HW133676   6.749   6.589  10.854 -0.5366 -1.4209 -1.1811
10745SOL    HW233677   6.782   6.537  10.716  0.6151  1.0799 -1.8920
10746SOL     OW33678   6.615   4.799  10.615 -0.2826  0.3522  0.2043
10746SOL    HW133679   6.561   4.826  10.541  0.1874  1.6689  0.3097
10746SOL    HW233680   6.634   4.706  10.599  0.0359  0.6725 -1.4791
10747SOL     OW33681   4.170   0.196  11.792  0.0454  0.1209 -0.0435
10747SOL    HW133682   4.198   0.285  11.773  0.5197  0.0189  0.1775
10747SOL    HW233683   4.243   0.141  11.762  0.6775 -0.0773  1.7265
10748SOL     OW33684   4.866   7.876   5.243  0.2060  0.7603 -0.5734
10748SOL    HW133685   4.883   7.781   5.241  1.3535  0.9590 -1.2994
10748SOL    HW233686   4.929   7.912   5.181 -0.7677  1.9305 -0.9006
10749SOL     OW33687   5.289   3.941   9.640  0.0993  0.1918 -0.0803
10749SOL    HW133688   5.358   4.005   9.624 -0.8900  0.6745 -2.8327
10749SOL    HW233689   5.327   3.857   9.614 -0.1561  0.3943 -1.1555
10750SOL     OW33690   6.241   5.094   6.769 -0.0014  0.2295 -0.6490
10750SOL    HW133691   6.235   5.031   6.841  0.9435 -0.1184 -0.8655
10750SOL    HW233692   6.289   5.168   6.806  0.0721  0.2507 -0.7872
10751SOL     OW33693   5.790   3.544  11.236 -0.3711  0.0522  0.0904
10751SOL    HW133694   5.873   3.590  11.250  0.2209 -1.2018  0.9223
10751SOL    HW233695   5.730   3.582  11.300 -0.1486  0.2871  0.1591
10752SOL     OW33696   6.689   4.240   1.731  0.5188  0.1886 -0.1340
10752SOL    HW133697   6.701   4.158   1.779 -0.2225  1.2799  2.0802
10752SOL    HW233698   6.599   4.237   1.700  0.0282  0.7116  1.1661
10753SOL     OW33699   3.463   4.944   2.084  0.1008 -0.5157 -0.0695
10753SOL    HW133700   3.450   4.865   2.136 -0.0533 -0.1521  0.4452
10753SOL    HW233701   3.551   4.973   2.106 -0.5953  0.6194  1.3388
10754SOL     OW33702   1.353   1.064   8.349  0.0258  0.4064  0.4356
10754SOL    HW133703   1.277   1.092   8.298  0.5376 -0.5774 -0.9366
10754SOL    HW233704   1.317   1.040   8.435 -1.3011 -0.4716 -0.3238
10755SOL     OW33705   6.290   0.038   1.848  0.0832  0.0600  0.2420
10755SOL    HW133706   6.303   0.085   1.765 -0.4744 -1.0777 -0.5147
10755SOL    HW233707   6.219   0.086   1.891  0.8280  1.0679  0.4049
10756SOL     OW33708   4.364   5.770   9.328 -0.2112 -0.5479 -0.0334
10756SOL    HW133709   4.350   5.747   9.420  0.9982  0.3971  0.4078
10756SOL    HW233710   4.431   5.838   9.330  0.3424 -0.9970 -1.6627
10757SOL     OW33711   3.289   0.792   4.005  0.1737  0.7463 -0.0892
10757SOL    HW133712   3.332   0.711   4.033  0.3511 -0.2603 -2.9358
10757SOL    HW233713   3.196   0.771   4.007  0.1712  0.7620 -0.0346
10758SOL     OW33714   7.944   0.064   4.566  0.1276 -0.5966  0.5186
10758SOL    HW133715   7.875   0.126   4.590 -0.2866  0.2074 -2.3062
10758SOL    HW233716   7.897  -0.011   4.530  0.6720 -0.7337  0.0683
10759SOL     OW33717   7.065   7.902   5.241  0.1102  0.1257  0.1501
10759SOL    HW133718   7.058   7.990   5.204  0.1006 -0.1490 -0.5158
10759SOL    HW233719   7.082   7.846   5.165  2.2592 -0.1862  0.8203
10760SOL     OW33720   1.565   6.556   1.154 -0.2754  0.0468  0.1986
10760SOL    HW133721   1.620   6.478   1.141 -0.2730 -0.0319  0.6429
10760SOL    HW233722   1.518   6.567   1.072  1.1682  0.7244 -0.5864
10761SOL     OW33723   0.799   5.622  10.110  0.1364  0.2774  0.4382
10761SOL    HW133724   0.819   5.533  10.079  1.4575  0.0692  1.7806
10761SOL    HW233725   0.746   5.609  10.188  2.2796  0.5159  2.0328
10762SOL     OW33726   7.008   2.553   2.220 -0.2543  0.2087  0.3091
10762SOL    HW133727   6.967   2.630   2.181 -1.5340 -0.1244  0.9497
10762SOL    HW233728   7.082   2.588   2.270 -0.5215  0.9653  0.1875
10763SOL     OW33729   0.873   0.493  12.357  0.2822  0.0249 -0.8083
10763SOL    HW133730   0.822   0.477  12.436  2.5994  0.1564  0.8261
10763SOL    HW233731   0.823   0.451  12.287 -1.7784 -0.2326  0.7219
10764SOL     OW33732   1.987   1.778   3.844 -0.8401  0.8057 -0.0598
10764SOL    HW133733   1.894   1.756   3.841 -0.7862  0.5502  0.1915
10764SOL    HW233734   2.016   1.771   3.753 -0.4593 -1.7019  0.2012
10765SOL     OW33735   5.329   2.337   3.253  0.0829  0.0741 -0.0608
10765SOL    HW133736   5.327   2.257   3.305 -1.2189  0.6493  0.7902
10765SOL    HW233737   5.238   2.359   3.237  0.4269  0.3321 -1.9811
10766SOL     OW33738   7.321   4.124   1.006 -0.1162  0.1740 -0.3745
10766SOL    HW133739   7.249   4.070   1.039 -0.3711  0.3485 -0.6415
10766SOL    HW233740   7.280   4.181   0.941  0.4859 -0.5767 -1.4497
10767SOL     OW33741   5.341   2.636   9.413 -0.9384  0.6080  0.0170
10767SOL    HW133742   5.340   2.573   9.485 -1.1277  0.9880  0.3488
10767SOL    HW233743   5.265   2.692   9.429  0.4975  2.3794  1.0267
10768SOL     OW33744   1.494   0.273  10.501  0.1875  0.6638  0.2568
10768SOL    HW133745   1.425   0.322  10.546  2.1832  2.5648  1.4493
10768SOL    HW233746   1.458   0.185  10.490 -2.5256  1.6435  0.4924
10769SOL     OW33747   1.659   2.074   5.327 -0.0407  0.3268 -0.1934
10769SOL    HW133748   1.640   2.116   5.243 -0.4837 -0.1637 -0.3450
10769SOL    HW233749   1.614   1.990   5.322  1.3342 -0.4408 -0.1412
10770SOL     OW33750   3.221   7.372   3.368  0.5070 -0.0638 -0.4298
10770SOL    HW133751   3.316   7.379   3.382  0.3486  1.1944  0.1132
10770SOL    HW233752   3.197   7.289   3.410  1.4770 -0.8291 -1.3010
10771SOL     OW33753   6.444   5.956   3.246  0.7026 -0.2258 -0.0963
10771SOL    HW133754   6.537   5.978   3.237  0.9076 -1.1252 -0.2376
10771SOL    HW233755   6.428   5.959   3.341  0.8565  0.0151 -0.0787
10772SOL     OW33756   2.775   7.962   1.954  0.3290  0.2136  0.2286
10772SOL    HW133757   2.692   7.918   1.970  0.4378 -0.0171  0.1580
10772SOL    HW233758   2.790   8.016   2.032  0.2156  0.0989  0.3288
10773SOL     OW33759   0.481   6.043   5.430 -0.2778  0.2638 -0.0470
10773SOL    HW133760   0.450   6.086   5.510 -0.3312  0.6219 -0.2571
10773SOL    HW233761   0.407   6.050   5.369 -0.4876 -0.6079  0.0916
10774SOL     OW33762   4.348   4.170   5.696  0.5592  0.2011  0.2211
10774SOL    HW133763   4.381   4.259   5.707 -1.0281  0.9140 -0.5180
10774SOL    HW233764   4.304   4.170   5.611  2.4568 -1.9529 -0.9031
10775SOL     OW33765   2.643   4.606   2.896 -0.0717  0.1747  0.3215
10775SOL    HW133766   2.616   4.561   2.976  1.2381 -1.5191 -0.1234
10775SOL    HW233767   2.575   4.582   2.832  0.1173 -0.4390  0.3373
10776SOL     OW33768   4.084   1.715   7.470  0.0162  0.5672 -0.0383
10776SOL    HW133769   4.049   1.631   7.500  0.3777  0.3233 -0.2927
10776SOL    HW233770   4.084   1.708   7.375  0.4692  0.6833 -0.0498
10777SOL     OW33771   4.583   5.490   9.515 -0.4019  0.1684  0.6626
10777SOL    HW133772   4.552   5.443   9.437 -1.2459  1.5860  0.1051
10777SOL    HW233773   4.673   5.514   9.494 -0.5570  0.3573  0.2037
10778SOL     OW33774   3.870   5.516  11.760  0.3508 -0.1476  0.1208
10778SOL    HW133775   3.862   5.471  11.844 -1.9836  1.2130  0.7165
10778SOL    HW233776   3.789   5.495  11.713  0.3810  1.2854 -0.6423
10779SOL     OW33777   1.742   7.108   3.351 -1.0624  0.5897  0.1782
10779SOL    HW133778   1.720   7.076   3.439  0.5833  0.7429  0.6767
10779SOL    HW233779   1.788   7.036   3.309 -2.2067  0.3626 -0.7520
10780SOL     OW33780   1.758   5.778   6.141  0.2013  0.2483  0.3716
10780SOL    HW133781   1.798   5.695   6.116 -0.1877 -0.0584  0.7490
10780SOL    HW233782   1.710   5.806   6.064  2.3284  1.3839 -0.6305
10781SOL     OW33783   0.601   7.496   5.450 -0.2353  0.5896 -0.1492
10781SOL    HW133784   0.607   7.486   5.356 -2.6082 -2.6862 -0.1005
10781SOL    HW233785   0.530   7.559   5.463 -1.4355 -0.6206 -0.6161
10782SOL     OW33786   5.618   4.930  10.649 -0.3435 -0.4685  0.3241
10782SOL    HW133787   5.526   4.906  10.636 -0.5326  0.5376 -0.4041
10782SOL    HW233788   5.617   4.990  10.723 -0.3001 -0.3341  0.2166
10783SOL     OW33789   7.109   4.383   9.843  0.0161  0.4782  0.0594
10783SOL    HW133790   7.178   4.333   9.887 -0.3408 -1.6136 -1.6098
10783SOL    HW233791   7.046   4.402   9.913  0.8372 -0.2428  1.0242
10784SOL     OW33792   0.154   4.190  11.699 -0.6450 -0.6319 -0.4053
10784SOL    HW133793   0.089   4.254  11.669 -1.5231 -2.0716 -1.7217
10784SOL    HW233794   0.212   4.240  11.756 -2.1111  1.0186 -0.2613
10785SOL     OW33795   6.776   0.165   4.328 -0.6040  0.8244 -0.0832
10785SOL    HW133796   6.687   0.135   4.348 -0.3458  0.3452  0.3703
10785SOL    HW233797   6.795   0.231   4.395 -0.4645  0.6320  0.0656
10786SOL     OW33798   1.848   2.659   1.580  0.5519 -0.0801 -0.7677
10786SOL    HW133799   1.758   2.641   1.608  1.3016 -1.6796  0.8238
10786SOL    HW233800   1.853   2.623   1.492  0.3366 -2.5944  0.1643
10787SOL     OW33801   5.322   4.289  10.575  0.1189 -0.1400 -0.0478
10787SOL    HW133802   5.321   4.298  10.670 -0.1129  1.0840 -0.1391
10787SOL    HW233803   5.233   4.309  10.548 -0.1210 -1.6559 -0.4592
10788SOL     OW33804   5.427   2.223   0.654  0.6409  0.2308 -0.4906
10788SOL    HW133805   5.377   2.303   0.669  0.2270 -0.1824  0.4278
10788SOL    HW233806   5.381   2.179   0.583 -0.3808 -0.1963  0.4151
10789SOL     OW33807   1.350   4.599   7.905 -0.3265 -0.2347 -0.2186
10789SOL    HW133808   1.270   4.563   7.866 -1.5079 -0.8945  2.5555
10789SOL    HW233809   1.321   4.681   7.946  0.6688  0.0754 -0.1223
10790SOL     OW33810   3.562   2.907   3.213  0.0006 -0.3183  0.0381
10790SOL    HW133811   3.585   2.896   3.120 -1.6268  0.3172 -0.4592
10790SOL    HW233812   3.495   2.841   3.229  1.3998 -1.5212  1.2310
10791SOL     OW33813   2.475   0.035   1.435  0.0941  0.6445  0.0821
10791SOL    HW133814   2.403   0.098   1.440  0.4678  1.1300 -0.6145
10791SOL    HW233815   2.496   0.029   1.342  0.6109  0.1042  0.2233
10792SOL     OW33816   6.076   6.594   8.975  0.4815  0.1314  0.2218
10792SOL    HW133817   6.047   6.595   9.066  0.6059  3.3469  0.3348
10792SOL    HW233818   6.167   6.566   8.978 -0.1783 -2.1546  0.7465
10793SOL     OW33819   3.455   1.198  12.261  0.0284 -0.1782  0.6694
10793SOL    HW133820   3.546   1.172  12.251  0.3838  0.2999  2.2893
10793SOL    HW233821   3.446   1.219  12.355 -1.3146  1.3356  0.2573
10794SOL     OW33822   1.570   1.764   5.065  0.3780 -0.1041  0.0934
10794SOL    HW133823   1.622   1.771   4.985  1.1678 -1.6132  0.4322
10794SOL    HW233824   1.551   1.670   5.073  0.9623 -0.1028  2.0670
10795SOL     OW33825   3.562   5.923   9.603 -0.6040 -0.3187  0.0265
10795SOL    HW133826   3.515   5.928   9.520 -0.9753  3.4012  0.2703
10795SOL    HW233827   3.496   5.896   9.666 -1.2398  0.2562 -0.3710
10796SOL     OW33828   4.495   4.213   7.895 -0.5414  0.3904 -0.2920
10796SOL    HW133829   4.430   4.229   7.827  0.4688 -0.9012 -1.6414
10796SOL    HW233830   4.468   4.131   7.936  0.0127  0.0392 -0.6130
10797SOL     OW33831   4.387   4.392   5.939  0.2036 -0.1452 -0.1634
10797SOL    HW133832   4.332   4.469   5.952  0.1218 -0.3287  0.5802
10797SOL    HW233833   4.440   4.414   5.862  0.2954  0.7181  0.1302
10798SOL     OW33834   3.468   3.702   1.520 -0.0856 -0.0883 -0.0177
10798SOL    HW133835   3.446   3.626   1.574 -1.1419 -1.0326 -1.7069
10798SOL    HW233836   3.398   3.707   1.455  1.8755  0.0826 -2.2557
10799SOL     OW33837   2.073   2.856   1.101 -0.0359 -0.1781  0.2695
10799SOL    HW133838   2.135   2.894   1.039 -0.5083 -0.7103 -0.5430
10799SOL    HW233839   2.000   2.918   1.103  0.0416 -0.0897  0.4105
10800SOL     OW33840   2.793   5.937   6.174 -0.0113 -0.0362  0.3390
10800SOL    HW133841   2.712   5.891   6.194 -0.3559  0.0062 -0.8878
10800SOL    HW233842   2.832   5.888   6.101  0.4983  0.5803  0.1865
10801SOL     OW33843   0.174   1.784   1.977  0.5469 -0.0453  0.4703
10801SOL    HW133844   0.197   1.873   2.005  0.1432  0.1517  0.1769
10801SOL    HW233845   0.100   1.795   1.917  0.4321 -0.5872  0.5024
10802SOL     OW33846   1.274   5.175   5.354 -0.3869 -0.1461  0.5026
10802SOL    HW133847   1.331   5.248   5.380  0.0047 -0.0094 -0.6931
10802SOL    HW233848   1.294   5.106   5.417  2.7641 -0.8934 -1.1089
10803SOL     OW33849   4.522   5.012   2.914  0.4566 -0.0233  0.2582
10803SOL    HW133850   4.444   5.041   2.962 -0.5129 -0.9092 -0.7101
10803SOL    HW233851   4.503   4.921   2.892  2.0055 -0.4064  0.4228
10804SOL     OW33852   1.201   5.283   5.665  0.4205 -0.3830  0.1430
10804SOL    HW133853   1.249   5.288   5.583 -0.3540 -2.8560 -0.5609
10804SOL    HW233854   1.147   5.362   5.666  0.2900 -0.3901 -1.8558
10805SOL     OW33855   0.753   1.916   4.238  0.6017 -0.4403  0.0821
10805SOL    HW133856   0.838   1.871   4.237  2.4690  2.7719 -0.0542
10805SOL    HW233857   0.768   1.995   4.290 -2.8404 -0.5371  1.4763
10806SOL     OW33858   3.522   6.947   3.619 -0.8130  0.2372 -0.1703
10806SOL    HW133859   3.442   6.966   3.668  0.1661 -0.2178  1.7123
10806SOL    HW233860   3.579   6.902   3.682  1.1322  0.9951 -1.2850
10807SOL     OW33861   5.442   1.379  10.139  0.6466  0.3982  0.1863
10807SOL    HW133862   5.364   1.338  10.175  1.1661 -0.8719 -0.0999
10807SOL    HW233863   5.493   1.405  10.216  0.8657 -0.5850  0.3786
10808SOL     OW33864   4.351   5.952   4.823  0.1598  0.2816  0.1984
10808SOL    HW133865   4.399   5.907   4.892  0.2734 -0.4298 -0.3304
10808SOL    HW233866   4.265   5.910   4.822  0.7490 -1.0095 -1.2895
10809SOL     OW33867   0.536   2.382   7.610  0.0996 -0.4900  0.2418
10809SOL    HW133868   0.441   2.392   7.622 -0.1842 -0.3566 -1.7101
10809SOL    HW233869   0.564   2.464   7.570  0.1096 -2.1543 -3.6174
10810SOL     OW33870   5.921   2.530   1.365  0.5326  0.0182  0.2327
10810SOL    HW133871   5.856   2.595   1.391  0.2555 -0.1397 -0.0510
10810SOL    HW233872   5.993   2.580   1.327  1.0951  0.2811  1.5805
10811SOL     OW33873   4.767   1.810  10.281  0.0981 -0.0252  0.1457
10811SOL    HW133874   4.752   1.853  10.197  0.3925 -2.1369 -1.0698
10811SOL    HW233875   4.728   1.723  10.270 -0.4520 -0.1322  2.4600
10812SOL     OW33876   2.970   2.887   8.561  0.4860  0.2651  0.8078
10812SOL    HW133877   2.993   2.961   8.617  1.5242  0.1691  0.5295
10812SOL    HW233878   2.993   2.916   8.472  0.6926 -0.3019  0.6726
10813SOL     OW33879   5.334   4.261   3.711  0.1690  0.2158 -0.3888
10813SOL    HW133880   5.298   4.304   3.634  1.1279  1.2069 -0.2964
10813SOL    HW233881   5.273   4.283   3.782  0.0634  0.4941 -0.5673
10814SOL     OW33882   0.998   0.988   9.349 -0.2483 -0.0384  0.2933
10814SOL    HW133883   0.964   0.965   9.435  0.3960  1.0006  0.8484
10814SOL    HW233884   0.946   1.063   9.322  0.3575  0.3998  0.3271
10815SOL     OW33885   1.935   0.172   0.266  0.2879  0.0146  0.0572
10815SOL    HW133886   2.013   0.153   0.319 -0.8725 -0.0900  1.7853
10815SOL    HW233887   1.888   0.089   0.261  0.3198  0.0489 -1.0798
10816SOL     OW33888   2.430   6.087   5.167 -0.0254  0.2641  0.0552
10816SOL    HW133889   2.523   6.101   5.186  0.5107 -1.2808 -1.2433
10816SOL    HW233890   2.408   6.005   5.211  0.4973 -1.8263 -3.2323
10817SOL     OW33891   1.470   2.839   4.043  0.5188 -0.1706  0.8042
10817SOL    HW133892   1.551   2.803   4.007 -0.7100 -2.5742  0.2135
10817SOL    HW233893   1.424   2.763   4.079 -1.7411  1.0141  0.6072
10818SOL     OW33894   1.380   3.663  12.362  0.1303 -0.0900 -0.0384
10818SOL    HW133895   1.374   3.742  12.416 -0.7376 -0.3662  0.2859
10818SOL    HW233896   1.341   3.688  12.278  0.4560  0.0125 -0.1613
10819SOL     OW33897   6.792   5.259  12.059  0.1225 -0.4672  0.4024
10819SOL    HW133898   6.743   5.205  12.121  0.2409 -2.1190 -0.8506
10819SOL    HW233899   6.728   5.279  11.990  0.6928 -1.0919 -0.3340
10820SOL     OW33900   3.825   4.329   8.488  0.0308 -0.9403 -0.2726
10820SOL    HW133901   3.820   4.311   8.582  0.9618 -2.5309 -0.4856
10820SOL    HW233902   3.742   4.371   8.466  0.5718  1.2710  1.6026
10821SOL     OW33903   7.583   1.956   7.180  0.2581  0.0351 -0.0736
10821SOL    HW133904   7.536   1.898   7.240  0.7769 -0.2538  0.0577
10821SOL    HW233905   7.514   1.998   7.129 -0.0841 -2.7402 -2.1172
10822SOL     OW33906   2.501   2.728   1.620  0.3448  0.1165  0.4264
10822SOL    HW133907   2.479   2.814   1.656 -1.4813  0.3687 -1.0895
10822SOL    HW233908   2.571   2.696   1.676 -0.1676  1.8037  2.1799
10823SOL     OW33909   2.476   3.105  10.475 -0.7909 -0.5236 -0.2979
10823SOL    HW133910   2.541   3.069  10.535  1.1339  1.2189 -1.1926
10823SOL    HW233911   2.441   3.181  10.521 -0.7267 -0.3179 -0.5820
10824SOL     OW33912   5.241   2.316   1.733 -0.0810  0.0854 -0.0279
10824SOL    HW133913   5.197   2.232   1.722 -0.8728  0.3200  1.1857
10824SOL    HW233914   5.269   2.317   1.825 -2.7502  2.3388  0.9021
10825SOL     OW33915   5.922   5.063   8.338 -0.3859  0.3271 -0.3652
10825SOL    HW133916   5.993   5.125   8.355 -0.5534 -0.2367  2.8823
10825SOL    HW233917   5.966   4.988   8.298  0.7165  0.3683  0.7097
10826SOL     OW33918   4.970   7.637   9.316 -0.2134  0.2410 -0.1157
10826SOL    HW133919   4.950   7.635   9.410  1.7480 -0.8274  0.3347
10826SOL    HW233920   5.065   7.646   9.312 -0.0042 -1.8857 -1.9390
10827SOL     OW33921   6.445   3.038   5.274 -0.3169  0.2573  0.1799
10827SOL    HW133922   6.521   3.095   5.271  0.9719 -1.3755  0.4502
10827SOL    HW233923   6.435   3.006   5.184 -0.6635  0.4337  0.1529
10828SOL     OW33924   1.000   3.980   6.297 -0.1990  0.6578 -0.2575
10828SOL    HW133925   0.915   3.969   6.254 -0.5059 -0.4907  0.6129
10828SOL    HW233926   1.051   3.904   6.271  0.2997  0.9442 -0.1394
10829SOL     OW33927   4.980   6.689   4.343 -0.2896  0.3144 -0.6102
10829SOL    HW133928   5.072   6.696   4.368 -1.0178  0.6173  2.4089
10829SOL    HW233929   4.964   6.595   4.336 -0.1923  0.1360  1.0671
10830SOL     OW33930   1.002   2.511   8.788  0.1871  0.4406  0.1285
10830SOL    HW133931   0.994   2.470   8.702 -1.0413 -0.1806  0.5111
10830SOL    HW233932   0.988   2.604   8.772 -0.6934  0.2531 -0.2786
10831SOL     OW33933   5.557   5.441  12.027 -0.7361 -0.0301 -0.5019
10831SOL    HW133934   5.614   5.517  12.039 -1.4517  0.4195  0.1538
10831SOL    HW233935   5.572   5.414  11.937  2.4332 -1.5316  0.3351
10832SOL     OW33936   0.310   6.171   8.525  0.5821  0.6324  0.5178
10832SOL    HW133937   0.286   6.131   8.442  0.6239 -1.5724  1.5148
10832SOL    HW233938   0.227   6.192   8.567  0.5250  0.1664  0.6415
10833SOL     OW33939   6.189   0.683   9.397  0.3131 -0.0094  0.2069
10833SOL    HW133940   6.116   0.695   9.458  0.4089  3.1917 -0.1309
10833SOL    HW233941   6.148   0.684   9.310  0.4888 -1.2957  0.0996
10834SOL     OW33942   6.256   0.933   8.316  0.6214 -0.1257 -0.2076
10834SOL    HW133943   6.179   0.881   8.293 -1.5455  1.1871  3.3455
10834SOL    HW233944   6.316   0.871   8.357  1.4298 -1.0837 -2.6506
10835SOL     OW33945   0.873   7.617   2.360  0.1778 -0.0687  0.0180
10835SOL    HW133946   0.960   7.598   2.326  0.2746  1.0464 -0.4014
10835SOL    HW233947   0.887   7.684   2.427 -0.3226 -0.0507  0.1087
10836SOL     OW33948   6.948   6.517   9.120  0.0570 -0.7348 -0.3627
10836SOL    HW133949   6.945   6.497   9.026  1.6683  1.4575 -0.9516
10836SOL    HW233950   7.036   6.492   9.147  0.2547  0.3851  0.0934
10837SOL     OW33951   2.330   4.353   3.739  0.3370  0.2845 -0.2217
10837SOL    HW133952   2.400   4.408   3.771  0.2590 -0.7536  1.8727
10837SOL    HW233953   2.277   4.411   3.684  1.2245  1.8073  0.4759
10838SOL     OW33954   5.442   6.242   2.151 -0.9848  0.2127  0.7438
10838SOL    HW133955   5.395   6.316   2.112 -1.3026  0.8958  2.3074
10838SOL    HW233956   5.389   6.166   2.130  0.0957  0.1558 -2.1398
10839SOL     OW33957   7.523   0.186  11.862  0.1907  0.8867  0.2755
10839SOL    HW133958   7.478   0.263  11.826 -1.7072 -0.4776 -0.4719
10839SOL    HW233959   7.472   0.112  11.828  2.1446 -0.7149  0.7146
10840SOL     OW33960   6.952   6.233   0.142 -0.6253 -0.2814 -0.3180
10840SOL    HW133961   6.917   6.187   0.065 -0.4734  0.3005 -0.7416
10840SOL    HW233962   6.903   6.315   0.146  0.2936  0.2984 -0.5994
10841SOL     OW33963   7.558   5.057   5.170 -0.3491 -0.0804  0.3975
10841SOL    HW133964   7.516   5.023   5.091 -0.6419  0.7590  0.1886
10841SOL    HW233965   7.624   4.991   5.192 -2.5620 -2.1024  1.4768
10842SOL     OW33966   0.135   5.334   6.028  0.1013 -0.0915  0.2594
10842SOL    HW133967   0.201   5.336   5.959  0.0131 -1.1052  0.1342
10842SOL    HW233968   0.109   5.426   6.038  0.8398  0.2001 -0.3446
10843SOL     OW33969   6.647   6.577   8.148 -0.3542 -0.3572  0.1675
10843SOL    HW133970   6.716   6.521   8.182 -0.7257 -0.8355  0.1581
10843SOL    HW233971   6.678   6.604   8.061 -0.5162 -1.2233 -0.1791
10844SOL     OW33972   0.178   5.322   9.639 -0.6820  0.4272 -0.0358
10844SOL    HW133973   0.261   5.370   9.633 -1.5770  2.2763  1.0609
10844SOL    HW233974   0.203   5.231   9.649  1.2171  0.9071 -0.0297
10845SOL     OW33975   5.196   3.266   0.489  0.2613  0.1446 -0.2909
10845SOL    HW133976   5.274   3.227   0.448  0.1056  0.3060 -0.7507
10845SOL    HW233977   5.137   3.284   0.416 -0.0529  0.3775  0.0151
10846SOL     OW33978   1.157   1.503   3.126  0.5490  0.1912 -0.0122
10846SOL    HW133979   1.107   1.423   3.144 -0.0895  0.4639 -0.5543
10846SOL    HW233980   1.185   1.533   3.212  0.5071 -0.4300  0.2268
10847SOL     OW33981   3.051   4.647  12.134 -0.1815 -0.2480 -0.1600
10847SOL    HW133982   3.029   4.734  12.166 -1.8627 -0.0370 -1.7258
10847SOL    HW233983   3.031   4.650  12.041  1.5404 -1.7670 -0.6237
10848SOL     OW33984   7.652   3.815   0.148 -0.9657  0.0590 -0.0737
10848SOL    HW133985   7.740   3.827   0.113 -0.8678 -0.6800 -0.1123
10848SOL    HW233986   7.598   3.877   0.101 -0.9169 -1.1560 -1.8232
10849SOL     OW33987   1.444   4.131   5.747  0.4833  0.1496  0.2318
10849SOL    HW133988   1.423   4.106   5.658 -0.5002  2.0320 -0.1138
10849SOL    HW233989   1.466   4.224   5.742  0.1522  0.3726  1.9773
10850SOL     OW33990   5.735   5.544   4.653 -0.0462 -0.2154 -0.2726
10850SOL    HW133991   5.746   5.504   4.567  1.1732 -0.0998 -0.1904
10850SOL    HW233992   5.823   5.545   4.691 -0.4142  0.5441  0.6159
10851SOL     OW33993   7.683   0.741   1.023 -0.0764  0.1028  0.1232
10851SOL    HW133994   7.719   0.652   1.017 -0.9600 -0.3743  1.3373
10851SOL    HW233995   7.684   0.760   1.117 -0.9549  0.9261 -0.0263
10852SOL     OW33996   1.759   5.451   5.732  0.0413  0.0274  0.5117
10852SOL    HW133997   1.826   5.385   5.715 -1.1608 -1.1067 -0.0701
10852SOL    HW233998   1.683   5.400   5.763 -0.8087  1.1741  0.3884
10853SOL     OW33999   6.157   4.532   7.410  0.3603  0.1022 -0.6306
10853SOL    HW134000   6.184   4.498   7.495  3.5755  0.1833 -1.4668
10853SOL    HW234001   6.063   4.545   7.417  0.6160  0.9360  3.1967
10854SOL     OW34002   1.103   2.874   4.978  0.3776  0.7556 -0.1820
10854SOL    HW134003   1.030   2.877   5.040 -0.1714  3.5170 -0.8131
10854SOL    HW234004   1.134   2.783   4.982 -0.9346  0.3089  2.5592
10855SOL     OW34005   4.374   0.889  11.371  0.2118 -0.6924 -0.5590
10855SOL    HW134006   4.383   0.802  11.332 -3.5299 -2.2256  1.4808
10855SOL    HW234007   4.349   0.946  11.298  0.1822 -1.8755 -1.4936
10856SOL     OW34008   4.785   6.451   2.637 -0.1579  0.2943  0.1061
10856SOL    HW134009   4.701   6.439   2.683  0.2385 -0.9732  0.5254
10856SOL    HW234010   4.846   6.479   2.705 -0.1775  1.0192 -0.1631
10857SOL     OW34011   2.008   1.078   0.284 -0.1828 -0.1514  0.1053
10857SOL    HW134012   2.085   1.027   0.261 -0.8106 -0.6053 -1.0254
10857SOL    HW234013   2.044   1.153   0.332  0.9497 -0.3836 -0.3330
10858SOL     OW34014   6.480   5.365   3.620  0.5565  0.4726 -0.4982
10858SOL    HW134015   6.419   5.433   3.648 -0.4602 -1.2063  1.6237
10858SOL    HW234016   6.553   5.371   3.681  0.4921 -0.2569 -0.3368
10859SOL     OW34017   2.090   6.807   9.442  0.5275  0.0894 -0.1357
10859SOL    HW134018   2.183   6.817   9.463  0.5168  0.6771 -0.3662
10859SOL    HW234019   2.051   6.774   9.524  0.5002  2.3160  0.8260
10860SOL     OW34020   5.801   2.329   0.681 -0.7765 -0.0972  0.0766
10860SOL    HW134021   5.749   2.344   0.602 -0.1033  0.1265 -0.3341
10860SOL    HW234022   5.817   2.235   0.682  1.3210  0.1488 -1.4563
10861SOL     OW34023   3.260   4.684   6.040 -0.1681  0.2392 -0.3026
10861SOL    HW134024   3.267   4.713   5.949 -1.3498  1.0976 -0.1442
10861SOL    HW234025   3.268   4.764   6.092 -1.6642  0.0879  0.2324
10862SOL     OW34026   1.142   3.954   8.255  0.0627  0.5260 -0.4465
10862SOL    HW134027   1.203   3.919   8.320  0.5716  0.3553 -1.0043
10862SOL    HW234028   1.178   3.925   8.171 -1.2315 -0.2804 -0.7541
10863SOL     OW34029   3.354   5.676   5.838 -0.0725  0.3232  0.1015
10863SOL    HW134030   3.297   5.600   5.851  1.7527 -1.3932 -1.3743
10863SOL    HW234031   3.396   5.660   5.753  4.4380  0.2051  2.1194
10864SOL     OW34032   2.571   1.198  11.288 -0.2216 -0.2266  0.4409
10864SOL    HW134033   2.543   1.182  11.198 -1.5078 -1.0100  0.9644
10864SOL    HW234034   2.584   1.293  11.292  0.5823 -0.2667 -0.7583
10865SOL     OW34035   6.519   2.349   5.154  0.3358 -0.3641  0.1856
10865SOL    HW134036   6.432   2.352   5.114  0.5695  1.7502 -0.2809
10865SOL    HW234037   6.579   2.353   5.080  0.8467 -1.3144  0.5344
10866SOL     OW34038   1.507   1.154   9.130  0.1428  0.0353 -0.0578
10866SOL    HW134039   1.528   1.062   9.147  1.2361  0.4746  1.1750
10866SOL    HW234040   1.442   1.152   9.060 -0.5357 -1.7109  0.5823
10867SOL     OW34041   5.168   7.571   2.039 -0.1537  0.4446 -0.4764
10867SOL    HW134042   5.196   7.488   2.077  1.1762  0.8129 -0.6230
10867SOL    HW234043   5.165   7.556   1.945 -1.7565  0.0424 -0.3976
10868SOL     OW34044   3.159   2.287   4.743 -0.4014  0.0454  0.1203
10868SOL    HW134045   3.149   2.269   4.836 -2.0392  0.2358  0.0007
10868SOL    HW234046   3.097   2.358   4.724  0.7880  0.8742 -0.8774
10869SOL     OW34047   4.900   0.178   5.988  0.4424  0.4520 -0.5915
10869SOL    HW134048   4.865   0.101   5.943  0.7153  0.7997 -1.4194
10869SOL    HW234049   4.822   0.227   6.014  0.0689 -1.6670  2.9323
10870SOL     OW34050   4.216   1.972   0.914 -0.0153 -0.0950  0.2625
10870SOL    HW134051   4.296   1.983   0.862 -0.3010 -0.6188 -0.2889
10870SOL    HW234052   4.154   1.929   0.855  0.0545 -1.8273  1.3983
10871SOL     OW34053   2.828   4.069   4.438  0.7167 -0.1282  0.5024
10871SOL    HW134054   2.854   3.979   4.418  2.6011  0.5748 -0.4529
10871SOL    HW234055   2.826   4.113   4.353 -0.7931  0.6181  0.8901
10872SOL     OW34056   2.959   0.464   4.433  0.6396 -0.5821 -0.1885
10872SOL    HW134057   2.896   0.452   4.362 -0.0875  1.2621  0.0835
10872SOL    HW234058   3.032   0.511   4.392 -0.4177  1.8191  0.4994
10873SOL     OW34059   0.965   4.388   5.100 -0.0813  0.1525 -0.2158
10873SOL    HW134060   1.019   4.355   5.172 -0.5327 -0.0910  0.0173
10873SOL    HW234061   0.973   4.484   5.106  0.6427  0.1122 -0.4378
10874SOL     OW34062   5.766   6.321   9.131 -0.0521  0.0791 -0.1631
10874SOL    HW134063   5.815   6.390   9.175 -2.1467  0.9320  1.0178
10874SOL    HW234064   5.755   6.354   9.041  0.9685  0.1549 -0.2698
10875SOL     OW34065   4.593   7.944   2.555  0.1431 -0.1298 -0.1059
10875SOL    HW134066   4.562   8.034   2.563  0.9514  0.1506 -0.0257
10875SOL    HW234067   4.679   7.944   2.599 -0.2491 -1.1516  0.7171
10876SOL     OW34068   6.084   4.369   9.206 -0.2969 -0.2815 -0.4017
10876SOL    HW134069   6.032   4.410   9.137 -0.0007 -1.1620 -1.1696
10876SOL    HW234070   6.021   4.351   9.276 -0.7891 -0.2173 -0.8190
10877SOL     OW34071   1.407   4.783   7.458  0.0265  0.1545 -0.3331
10877SOL    HW134072   1.457   4.798   7.538 -0.4073 -1.0258  0.1703
10877SOL    HW234073   1.471   4.747   7.396  0.2477  0.5989 -0.3695
10878SOL     OW34074   1.828   6.082   0.892  0.5399 -0.1775  0.5089
10878SOL    HW134075   1.826   6.107   0.800 -1.3052  0.1261  0.5974
10878SOL    HW234076   1.917   6.104   0.921  0.3340  2.2897 -0.5225
10879SOL     OW34077   6.900   3.748   1.382  0.2992 -0.1155 -0.2569
10879SOL    HW134078   6.898   3.774   1.290  0.0080  0.8221  0.0079
10879SOL    HW234079   6.989   3.717   1.395 -0.9017 -5.6246 -2.2501
10880SOL     OW34080   7.576   3.860   1.557  0.5135 -0.4001 -0.0194
10880SOL    HW134081   7.631   3.938   1.546 -0.8786  0.6917  0.4302
10880SOL    HW234082   7.599   3.827   1.644 -1.4621  1.7200  1.4214
10881SOL     OW34083   0.882   2.546   3.406 -0.2367 -0.0166  0.1717
10881SOL    HW134084   0.939   2.611   3.446  0.3847 -0.4160 -0.0419
10881SOL    HW234085   0.934   2.465   3.406 -1.6965 -1.0359  2.2390
10882SOL     OW34086   6.291   2.207   2.369 -0.0177  0.3042  0.1244
10882SOL    HW134087   6.211   2.255   2.350  0.9856  1.9785 -0.0198
10882SOL    HW234088   6.355   2.242   2.308  0.5971 -1.7517 -0.4921
10883SOL     OW34089   1.720   1.666   5.698  0.5865 -0.2643  0.2261
10883SOL    HW134090   1.742   1.751   5.659  0.5173  0.8793  2.5139
10883SOL    HW234091   1.699   1.610   5.623 -0.8199  2.1253 -1.3035
10884SOL     OW34092   0.170   1.179   9.684  0.1252 -0.2380  0.3945
10884SOL    HW134093   0.101   1.140   9.630  0.5613 -0.2831 -0.1452
10884SOL    HW234094   0.141   1.269   9.698  0.9295  0.3930 -1.6194
10885SOL     OW34095   5.052   5.210   1.770  0.3613 -1.0493 -0.1081
10885SOL    HW134096   5.035   5.296   1.730  0.1500 -1.4406 -0.8855
10885SOL    HW234097   5.138   5.186   1.737  0.9046 -0.6559  0.9873
10886SOL     OW34098   6.553   0.913   5.228  0.3809  0.1605 -0.2488
10886SOL    HW134099   6.638   0.947   5.201  0.0385 -1.4116 -3.7904
10886SOL    HW234100   6.555   0.821   5.204 -1.8073 -0.2688  0.9771
10887SOL     OW34101   5.784   5.576   9.440 -0.4438 -0.2825 -0.4839
10887SOL    HW134102   5.726   5.501   9.450 -0.3099 -0.2211  0.8213
10887SOL    HW234103   5.867   5.539   9.411 -0.1624 -0.7291  0.8475
10888SOL     OW34104   1.372   3.420   2.704  0.5195 -0.3351 -0.3544
10888SOL    HW134105   1.417   3.341   2.675  0.7466  0.0262 -0.9982
10888SOL    HW234106   1.290   3.421   2.654 -0.7777 -1.5624  1.5735
10889SOL     OW34107   6.080   2.339   2.252  0.6876 -0.0748 -0.8731
10889SOL    HW134108   6.014   2.270   2.246 -0.6509  0.9513  1.1730
10889SOL    HW234109   6.033   2.420   2.234  1.5612  0.6099 -0.1785
10890SOL     OW34110   3.346   4.390   2.951  0.6714 -0.3976 -0.2351
10890SOL    HW134111   3.288   4.410   3.025  0.2582 -2.1113 -0.0559
10890SOL    HW234112   3.309   4.440   2.878 -0.4500 -0.6765  0.1142
10891SOL     OW34113   2.190   7.961   1.227 -0.1951 -0.1506 -0.3958
10891SOL    HW134114   2.141   7.958   1.309 -1.1099  1.2612 -0.8614
10891SOL    HW234115   2.211   7.869   1.209 -0.9610 -0.5954  0.8164
10892SOL     OW34116   1.707   0.126   3.892 -0.0538 -0.0536  0.0899
10892SOL    HW134117   1.770   0.197   3.882  0.9042 -0.9929 -0.7082
10892SOL    HW234118   1.622   0.170   3.892  0.4990  1.0722 -0.8319
10893SOL     OW34119   2.013   5.537   0.221 -0.2949 -0.1047 -0.4519
10893SOL    HW134120   1.955   5.612   0.226  0.6822  0.6037  1.2204
10893SOL    HW234121   2.023   5.520   0.127  0.4225  2.6276 -0.9459
10894SOL     OW34122   6.895   3.860   7.632  0.4119  0.2841  0.6475
10894SOL    HW134123   6.932   3.943   7.605  0.1159  0.3489  0.4333
10894SOL    HW234124   6.805   3.861   7.598  1.5481 -1.7882 -2.9554
10895SOL     OW34125   1.400   6.933   4.616  0.1309 -0.0707  0.1697
10895SOL    HW134126   1.313   6.970   4.607  0.3506  0.4190  0.0670
10895SOL    HW234127   1.431   6.963   4.702  1.3760  2.2534 -1.0183
10896SOL     OW34128   3.251   7.519   1.621  0.0733 -0.7287 -0.5568
10896SOL    HW134129   3.213   7.588   1.676 -0.9150 -0.8324 -1.0890
10896SOL    HW234130   3.176   7.466   1.593  0.7610 -1.7388 -0.5596
10897SOL     OW34131   2.231   6.405   2.531  0.0613 -0.4514  0.1766
10897SOL    HW134132   2.162   6.435   2.472  0.3645  0.4227  0.2545
10897SOL    HW234133   2.273   6.334   2.483 -0.5564 -0.6529 -0.0879
10898SOL     OW34134   6.561   5.694   4.785 -0.2744  0.0921  0.5063
10898SOL    HW134135   6.545   5.599   4.789  0.8192 -0.1249  0.0597
10898SOL    HW234136   6.612   5.712   4.864 -2.4338  0.7497  1.8423
10899SOL     OW34137   0.352   4.319   3.422 -0.1510  0.1820  0.2072
10899SOL    HW134138   0.436   4.276   3.440  0.3552  0.7577 -0.7276
10899SOL    HW234139   0.300   4.251   3.378  0.1279  0.0857  0.0233
10900SOL     OW34140   7.566   2.589   0.768  0.0007  0.3062  0.3839
10900SOL    HW134141   7.626   2.625   0.703  0.1102 -0.9247 -0.2233
10900SOL    HW234142   7.524   2.666   0.807 -0.1129  1.0777 -1.1811
10901SOL     OW34143   1.204   3.384  10.409 -0.2373  0.4965  0.2547
10901SOL    HW134144   1.191   3.424  10.495  3.3221  1.4492  0.4825
10901SOL    HW234145   1.160   3.299  10.415 -1.7888  1.3692  2.2712
10902SOL     OW34146   5.462   1.838   8.707 -0.2917  0.2009  0.1734
10902SOL    HW134147   5.413   1.885   8.775  0.2961  0.5473  0.3689
10902SOL    HW234148   5.497   1.908   8.651  0.4927 -0.0060  0.4001
10903SOL     OW34149   7.382   4.769   1.645 -0.2648  0.1391  0.0427
10903SOL    HW134150   7.298   4.725   1.658 -0.5194  0.4059 -0.6415
10903SOL    HW234151   7.435   4.705   1.597  0.3895 -0.5281  1.5759
10904SOL     OW34152   5.292   6.612   2.255  0.1113  0.3987 -0.0901
10904SOL    HW134153   5.341   6.538   2.290 -1.7860 -0.3104  1.2008
10904SOL    HW234154   5.219   6.573   2.207 -0.2847  1.4189 -0.3493
10905SOL     OW34155   7.161   4.099   7.312  0.4662 -0.1914  0.0025
10905SOL    HW134156   7.174   4.010   7.345  0.1345 -0.6528 -1.0986
10905SOL    HW234157   7.172   4.092   7.218 -3.7799  0.0865 -0.6822
10906SOL     OW34158   2.524   5.754   7.513  0.3756 -0.0560  0.4540
10906SOL    HW134159   2.539   5.809   7.590  2.8527 -1.4272  1.0679
10906SOL    HW234160   2.478   5.810   7.451  0.7705  1.9580  1.9068
10907SOL     OW34161   1.198   3.302   0.248  0.4636  0.0418  0.0226
10907SOL    HW134162   1.206   3.316   0.342 -0.8007  1.1699  0.0019
10907SOL    HW234163   1.251   3.225   0.230  2.4783  1.0512  1.3090
10908SOL     OW34164   6.271   2.632   9.385  0.2517  0.3470 -0.8039
10908SOL    HW134165   6.255   2.634   9.479 -0.2588 -1.8107 -0.7870
10908SOL    HW234166   6.366   2.623   9.378  0.3903  1.4589 -0.5495
10909SOL     OW34167   1.272   0.040   4.089 -0.2629  0.0971 -0.4548
10909SOL    HW134168   1.179   0.052   4.069 -0.8144  1.8726  2.5647
10909SOL    HW234169   1.286   0.090   4.169  3.6977  1.2432 -1.6377
10910SOL     OW34170   0.890   7.087   4.981 -0.1599  0.0988  0.1573
10910SOL    HW134171   0.898   7.058   5.072  0.9796 -0.6235 -0.1456
10910SOL    HW234172   0.844   7.016   4.937 -0.4422  0.3129  0.1040
10911SOL     OW34173   3.141   5.850   9.883 -0.4322  0.5747  0.0780
10911SOL    HW134174   3.099   5.825   9.965 -1.5227  0.2292 -0.5588
10911SOL    HW234175   3.110   5.785   9.820  2.8032 -1.0968 -0.0155
10912SOL     OW34176   1.202   5.057   7.629  0.2927  0.6018  0.2113
10912SOL    HW134177   1.123   5.057   7.682 -0.3478  1.7722 -0.6920
10912SOL    HW234178   1.190   4.983   7.569  0.9659 -0.6497  1.5464
10913SOL     OW34179   3.484   1.745   0.727  0.0008  0.2373  0.6521
10913SOL    HW134180   3.494   1.663   0.679  1.4277  0.0780  1.1958
10913SOL    HW234181   3.478   1.812   0.659 -2.7041 -0.4027  0.1403
10914SOL     OW34182   6.132   0.458   1.905  0.1473  0.2601  0.1933
10914SOL    HW134183   6.146   0.383   1.848  1.3456  2.0513 -2.0058
10914SOL    HW234184   6.050   0.496   1.875  1.0038  1.4632 -0.7082
10915SOL     OW34185   5.940   6.516   5.145  0.3683 -0.7338  0.2609
10915SOL    HW134186   5.862   6.461   5.150 -0.3003  0.1925  0.4576
10915SOL    HW234187   5.939   6.566   5.227 -0.8193  1.8017 -1.1595
10916SOL     OW34188   5.757   1.738   1.407 -0.3751 -0.0988  0.2479
10916SOL    HW134189   5.706   1.816   1.384 -1.5170 -0.5632  1.0718
10916SOL    HW234190   5.843   1.772   1.432 -1.0584  0.9892  1.2514
10917SOL     OW34191   2.076   3.606  11.057 -0.1920  0.9481 -0.1785
10917SOL    HW134192   2.052   3.514  11.054 -0.7614  1.1095 -1.3173
10917SOL    HW234193   2.169   3.608  11.035  0.3768  0.4976  1.9950
10918SOL     OW34194   4.338   1.275   6.722 -0.4756 -0.3508  0.3613
10918SOL    HW134195   4.326   1.282   6.627 -0.5583 -0.3387  0.3720
10918SOL    HW234196   4.313   1.185   6.742  1.1874 -0.9009  0.1366
10919SOL     OW34197   5.654   0.543   9.007  0.2685  0.0295 -0.1521
10919SOL    HW134198   5.615   0.624   8.976 -0.5382 -0.7397 -1.2585
10919SOL    HW234199   5.711   0.514   8.935  1.2665  0.0694  0.6008
10920SOL     OW34200   7.516   5.287  12.414  0.2983 -0.1397  0.2446
10920SOL    HW134201   7.420   5.296  12.417  0.1935  0.0915 -2.0565
10920SOL    HW234202   7.547   5.346  12.482 -1.1499  1.3315 -0.3001
10921SOL     OW34203   6.412   3.935  10.011 -0.9961  0.6070  0.1330
10921SOL    HW134204   6.316   3.941  10.011 -0.9353  3.0349 -1.0269
10921SOL    HW234205   6.441   4.009  10.065  0.2071  0.9198 -0.8828
10922SOL     OW34206   0.384   7.029   8.001  0.0371  0.5690 -0.3905
10922SOL    HW134207   0.370   7.085   8.077  1.5966  1.2325 -0.5442
10922SOL    HW234208   0.296   7.009   7.969 -0.7154 -0.7025  2.2405
10923SOL     OW34209   5.910   5.516   2.478 -0.5895  0.5706  0.1957
10923SOL    HW134210   5.927   5.429   2.442  0.6446  0.5294  0.8324
10923SOL    HW234211   5.817   5.531   2.460 -0.4636 -0.2080 -1.3353
10924SOL     OW34212   2.582   0.966   4.526 -0.6693  0.3582 -0.1188
10924SOL    HW134213   2.672   0.973   4.558 -0.8958  2.4717  0.2081
10924SOL    HW234214   2.528   0.980   4.604 -1.3192 -1.0972 -0.2717
10925SOL     OW34215   4.061   6.470  12.178  0.1205 -0.0901  0.3297
10925SOL    HW134216   4.121   6.439  12.111  0.3288  2.7331 -0.9405
10925SOL    HW234217   4.101   6.551  12.210 -0.8631 -0.4470  2.6448
10926SOL     OW34218   3.527   1.434  10.473  0.6393  0.5152  0.2119
10926SOL    HW134219   3.449   1.384  10.452 -0.3736  1.9914  0.3156
10926SOL    HW234220   3.571   1.382  10.541  0.2309 -0.7601 -0.4664
10927SOL     OW34221   5.120   1.069   2.511  0.4579  0.1312  0.6247
10927SOL    HW134222   5.111   1.100   2.601 -0.7930  0.0731  0.5435
10927SOL    HW234223   5.032   1.037   2.488 -0.4858  3.9725 -2.0197
10928SOL     OW34224   4.446   7.403   1.412  0.1009  0.2898 -0.7554
10928SOL    HW134225   4.369   7.349   1.396  0.7644 -0.1234 -2.9006
10928SOL    HW234226   4.412   7.491   1.427 -0.8892 -0.3247  0.7816
10929SOL     OW34227   4.166   3.591   2.986  0.4034  0.4241  0.3065
10929SOL    HW134228   4.123   3.673   2.961  0.6106  0.0855 -1.2542
10929SOL    HW234229   4.259   3.613   2.991  0.3177  0.6189  1.4260
10930SOL     OW34230   0.116   2.370  11.842 -0.3265  0.1195  0.1915
10930SOL    HW134231   0.133   2.425  11.766 -3.0007  1.7504  0.6639
10930SOL    HW234232   0.187   2.306  11.841  2.5651  3.0104 -0.8674
10931SOL     OW34233   7.922   1.205   4.069 -0.2055 -0.4118  0.7760
10931SOL    HW134234   7.856   1.137   4.057  0.0061 -0.4565 -0.1838
10931SOL    HW234235   7.964   1.214   3.984 -0.8978  1.6241  0.6061
10932SOL     OW34236   3.135   1.362   8.897  0.1143 -0.1252  0.2823
10932SOL    HW134237   3.087   1.428   8.947 -0.5220 -0.3991  0.0410
10932SOL    HW234238   3.116   1.279   8.941  0.2104 -0.2619  0.0708
10933SOL     OW34239   2.905   0.322  12.086 -0.3899 -0.3936  0.7094
10933SOL    HW134240   2.935   0.310  11.996 -0.8886  0.2824  0.4442
10933SOL    HW234241   2.913   0.416  12.101 -0.7012 -0.4508  1.2320
10934SOL     OW34242   1.570   3.226   9.802 -0.4746  0.4863 -0.1254
10934SOL    HW134243   1.516   3.303   9.785 -0.4784  0.4748 -0.1664
10934SOL    HW234244   1.507   3.154   9.809 -0.4543  0.4472 -0.3240
10935SOL     OW34245   2.471   6.486  11.756  0.2730  0.3024  0.2335
10935SOL    HW134246   2.435   6.409  11.801  0.9626 -0.1003  0.1044
10935SOL    HW234247   2.459   6.468  11.663 -0.2672  0.7062  0.2141
10936SOL     OW34248   1.611   2.597  11.504 -0.3976 -0.0324  0.1640
10936SOL    HW134249   1.589   2.504  11.508 -2.6397  0.3537 -1.4562
10936SOL    HW234250   1.586   2.625  11.416  0.2619  2.1145  0.5820
10937SOL     OW34251   2.710   6.298   4.087 -0.2895 -0.1719  0.2311
10937SOL    HW134252   2.798   6.283   4.122 -0.2304  0.4620  0.3661
10937SOL    HW234253   2.652   6.278   4.160 -0.2291 -0.1137  0.2959
10938SOL     OW34254   6.846   7.035   6.110  0.3056  0.4396  0.3067
10938SOL    HW134255   6.815   7.057   6.023 -1.9010 -1.5511  0.4995
10938SOL    HW234256   6.928   6.987   6.096  0.5814  1.1539 -0.5674
10939SOL     OW34257   7.394   0.797   4.328  0.1484  0.4274  0.1132
10939SOL    HW134258   7.349   0.712   4.329 -0.5244  0.7129  2.5187
10939SOL    HW234259   7.376   0.833   4.241 -3.5633  0.0850  0.5639
10940SOL     OW34260   1.414   7.061   5.814 -0.2191  0.2953  0.4245
10940SOL    HW134261   1.431   7.153   5.796 -0.2034  0.8942  3.0446
10940SOL    HW234262   1.496   7.017   5.791  0.8196  1.4036  1.8088
10941SOL     OW34263   7.636   7.094   4.632 -0.6192  0.0386  0.0967
10941SOL    HW134264   7.640   7.009   4.588 -1.0918 -0.1002  0.3104
10941SOL    HW234265   7.727   7.124   4.635 -0.4491 -0.4541  0.0066
10942SOL     OW34266   6.420   1.900   9.373 -0.1157 -0.5551  0.1255
10942SOL    HW134267   6.378   1.862   9.450  1.7205  0.7343  1.8537
10942SOL    HW234268   6.352   1.954   9.333 -0.4978  0.6481  2.2361
10943SOL     OW34269   6.924   1.286  12.365 -0.4538 -0.2403  0.4167
10943SOL    HW134270   6.973   1.361  12.397  0.6011 -1.4690  1.8162
10943SOL    HW234271   6.958   1.211  12.415 -2.0639 -1.5268 -0.2960
10944SOL     OW34272   5.001   0.728  12.311  0.7909 -0.6728  0.3303
10944SOL    HW134273   5.069   0.744  12.376  1.7423 -0.7906 -0.6123
10944SOL    HW234274   5.048   0.717  12.228 -0.3719 -0.7290 -0.3540
10945SOL     OW34275   7.280   4.218   5.446 -0.3239  0.1236  0.0960
10945SOL    HW134276   7.248   4.191   5.532  0.3207 -0.3572  0.1891
10945SOL    HW234277   7.368   4.251   5.462  0.6708 -1.9607 -0.6598
10946SOL     OW34278   1.711   6.413   2.055 -0.2662 -0.6181  0.0375
10946SOL    HW134279   1.736   6.412   2.147  2.8028  0.7326 -0.6513
10946SOL    HW234280   1.625   6.456   2.054 -1.1569 -2.1620  2.3392
10947SOL     OW34281   1.540   2.016   9.222 -0.1273  0.0355 -0.7110
10947SOL    HW134282   1.588   2.039   9.302 -0.5259 -0.3657 -0.3505
10947SOL    HW234283   1.525   1.922   9.230 -0.7657  0.1160 -0.9295
10948SOL     OW34284   2.578   0.796   4.836  0.7663 -0.6042 -0.4421
10948SOL    HW134285   2.635   0.825   4.907 -0.2369 -1.6877  0.8344
10948SOL    HW234286   2.616   0.713   4.806  0.9335 -0.3694 -0.9036
10949SOL     OW34287   7.477   0.197   4.297 -0.3389  0.0263  0.0087
10949SOL    HW134288   7.414   0.214   4.227 -0.9944 -0.4098  0.4904
10949SOL    HW234289   7.489   0.102   4.297 -0.0188  0.0628  0.2182
10950SOL     OW34290   3.088   4.473   3.414 -0.0085  0.4683 -0.5155
10950SOL    HW134291   3.099   4.557   3.458  3.9941  0.6473 -1.4824
10950SOL    HW234292   3.106   4.408   3.481  2.6681  0.6600 -0.9293
10951SOL     OW34293   0.247   1.710  11.460  0.1369 -0.1922 -0.2961
10951SOL    HW134294   0.220   1.722  11.551  1.0398  0.4400 -0.0971
10951SOL    HW234295   0.182   1.759  11.409 -0.4895 -0.7150 -0.0203
10952SOL     OW34296   4.832   6.982   0.982  0.5077  0.5615  0.4854
10952SOL    HW134297   4.764   6.987   0.914 -0.9626  1.9609  1.9516
10952SOL    HW234298   4.833   6.890   1.008  1.3548 -0.0882 -1.5923
10953SOL     OW34299   6.519   5.919  11.117  0.1520 -0.2555  0.6288
10953SOL    HW134300   6.526   5.924  11.021  0.6988  1.1675  0.7203
10953SOL    HW234301   6.431   5.886  11.132 -0.6993  1.3829 -0.3771
10954SOL     OW34302   3.941   6.484   0.728 -0.6291  0.4705  0.1896
10954SOL    HW134303   3.917   6.489   0.636 -1.1618  0.0505  0.3046
10954SOL    HW234304   3.923   6.394   0.753 -2.9387  1.1997  1.3714
10955SOL     OW34305   3.350   7.872   4.064  0.6274  0.4406 -0.0307
10955SOL    HW134306   3.335   7.791   4.113  3.1543 -0.1389 -0.0911
10955SOL    HW234307   3.438   7.900   4.090  0.9893  1.5535 -2.2418
10956SOL     OW34308   3.949   4.307   0.126 -0.2697  0.0517  0.4115
10956SOL    HW134309   3.938   4.240   0.195 -0.7397 -0.2078  0.0906
10956SOL    HW234310   3.936   4.390   0.171 -1.9802 -0.1757  0.3747
10957SOL     OW34311   3.506   3.016   0.263 -0.4305 -0.2551  0.3769
10957SOL    HW134312   3.450   3.010   0.341  0.5492 -2.8165  0.9886
10957SOL    HW234313   3.445   3.010   0.189 -1.2981  1.3794  0.9049
10958SOL     OW34314   3.143   3.632   9.662  0.3856 -0.1310  0.0827
10958SOL    HW134315   3.180   3.551   9.698  0.2478  0.1964  0.9747
10958SOL    HW234316   3.054   3.608   9.636  0.3348 -0.2601  0.3747
10959SOL     OW34317   4.187   0.811   6.299 -0.0338 -0.1381  0.0895
10959SOL    HW134318   4.255   0.877   6.296  1.4733 -1.6229 -2.7420
10959SOL    HW234319   4.202   0.764   6.381 -0.4429  2.2128  1.5874
10960SOL     OW34320   6.121   4.249  12.134  0.3226 -0.4468 -0.0466
10960SOL    HW134321   6.045   4.245  12.075  0.5676 -1.5977 -0.3120
10960SOL    HW234322   6.145   4.341  12.136 -0.0057 -0.3097 -1.3645
10961SOL     OW34323   1.351   1.749   1.903 -0.1875  0.0306 -0.3581
10961SOL    HW134324   1.276   1.784   1.952  0.2964 -0.0466  0.4691
10961SOL    HW234325   1.315   1.676   1.854 -0.8987  0.7318 -0.9215
10962SOL     OW34326   2.270   6.172   6.519 -0.5101 -0.0239 -0.2209
10962SOL    HW134327   2.186   6.190   6.476 -0.1004  2.2586 -0.1845
10962SOL    HW234328   2.329   6.150   6.447 -1.0509 -1.3848 -0.2728
10963SOL     OW34329   4.578   4.359   6.735 -0.4786  0.3215  0.1078
10963SOL    HW134330   4.533   4.292   6.786 -0.2852  1.2876  1.6065
10963SOL    HW234331   4.534   4.359   6.651 -2.0074 -0.0956  0.8794
10964SOL     OW34332   7.961   5.145   1.121 -0.2526  0.2227 -0.3739
10964SOL    HW134333   7.922   5.172   1.204 -1.4137  0.6861 -1.0569
10964SOL    HW234334   7.992   5.226   1.081 -1.4097  0.2565 -1.2440
10965SOL     OW34335   7.080   3.901   2.302  0.3766  0.4152  0.0407
10965SOL    HW134336   7.087   3.879   2.209  0.5717 -0.5706  0.2706
10965SOL    HW234337   6.986   3.904   2.318  0.3404  0.7011 -0.2106
10966SOL     OW34338   1.791   0.478   6.755 -0.4740 -0.2914 -0.2887
10966SOL    HW134339   1.858   0.410   6.753 -0.4572 -0.2938  0.2241
10966SOL    HW234340   1.708   0.430   6.749 -0.4845 -0.4053  0.6325
10967SOL     OW34341   5.965   0.141  10.276  0.1716  0.1045 -0.5980
10967SOL    HW134342   6.027   0.149  10.204  1.9064 -0.4094  0.7752
10967SOL    HW234343   5.923   0.228  10.281  2.6428  1.3399  0.0312
10968SOL     OW34344   4.506   7.010   9.521  0.5031 -0.2629  0.2585
10968SOL    HW134345   4.522   7.016   9.427  1.9720  1.1073  0.5576
10968SOL    HW234346   4.446   7.082   9.540 -0.7987 -1.2960  0.2136
10969SOL     OW34347   0.101   7.540   0.707 -0.0879 -0.2010  0.2649
10969SOL    HW134348   0.079   7.448   0.721 -1.6211  0.1701  0.4713
10969SOL    HW234349   0.017   7.585   0.704  0.6586  1.3350  1.1036
10970SOL     OW34350   2.874   5.134  11.108  0.6577 -0.0283  0.4154
10970SOL    HW134351   2.787   5.106  11.081  0.4539 -0.1840  1.1939
10970SOL    HW234352   2.928   5.124  11.030  0.5612 -2.4795  0.5851
10971SOL     OW34353   4.532   5.512   4.302 -0.5034  0.1640 -0.1488
10971SOL    HW134354   4.449   5.491   4.260  0.2704 -0.0649 -1.6295
10971SOL    HW234355   4.545   5.605   4.287  0.6048 -0.2373 -2.0719
10972SOL     OW34356   0.755   6.862  11.608  0.3087  0.1219 -0.2075
10972SOL    HW134357   0.796   6.948  11.598 -2.5217  1.3782 -2.5700
10972SOL    HW234358   0.674   6.879  11.654 -1.0002 -0.9633 -1.9666
10973SOL     OW34359   3.771   3.797  12.408 -0.5605  0.1988 -0.6011
10973SOL    HW134360   3.844   3.857  12.391  0.5770 -0.9923 -0.1116
10973SOL    HW234361   3.770   3.739  12.331 -1.2717  0.4575 -0.7956
10974SOL     OW34362   7.799   2.046  10.531  0.2397 -0.0367 -1.1453
10974SOL    HW134363   7.875   2.012  10.578 -0.4296 -0.2102 -0.1543
10974SOL    HW234364   7.746   1.969  10.512 -0.5707  0.2579 -0.1849
10975SOL     OW34365   7.760   2.863   7.031 -0.1483 -0.5890 -0.2422
10975SOL    HW134366   7.813   2.910   7.096 -3.3974  1.6750  1.0549
10975SOL    HW234367   7.729   2.785   7.076  0.1486 -0.6556 -0.1557
10976SOL     OW34368   6.800   6.975   4.680  0.1920 -0.0354  0.4016
10976SOL    HW134369   6.752   7.035   4.737  0.0981  1.4012 -1.1072
10976SOL    HW234370   6.769   6.995   4.592  3.1650  0.6722 -0.6336
10977SOL     OW34371   5.574   6.401   6.405 -0.5100  0.2219  0.2340
10977SOL    HW134372   5.611   6.346   6.336 -1.9188 -0.6605  0.1482
10977SOL    HW234373   5.623   6.376   6.484 -1.2767 -1.3652  0.2413
10978SOL     OW34374   0.158   5.494   6.640 -0.3557  1.0122 -0.5697
10978SOL    HW134375   0.148   5.431   6.712 -0.1389  1.1627 -0.4087
10978SOL    HW234376   0.130   5.577   6.677 -1.6297  0.8365 -1.0790
10979SOL     OW34377   4.609   5.667   9.885 -0.2512  0.1169 -0.2520
10979SOL    HW134378   4.608   5.757   9.854 -0.6812  0.8363  1.7128
10979SOL    HW234379   4.535   5.625   9.840 -1.1699  1.2413  0.1794
10980SOL     OW34380   3.651   5.674   3.462 -0.0386 -0.6299 -0.5118
10980SOL    HW134381   3.597   5.745   3.496  0.5891  0.5178 -1.8262
10980SOL    HW234382   3.667   5.618   3.538 -0.1648  0.8835  0.6828
10981SOL     OW34383   6.195   3.465   7.830 -0.3370 -0.3072  0.3479
10981SOL    HW134384   6.147   3.399   7.780 -1.3508  0.1397  0.7071
10981SOL    HW234385   6.174   3.446   7.921 -2.4497  1.8264  0.3741
10982SOL     OW34386   6.179   3.787   2.326  0.1119 -0.5347  0.2247
10982SOL    HW134387   6.098   3.756   2.284  0.0365  0.1742 -0.1793
10982SOL    HW234388   6.209   3.713   2.378  0.5553 -1.7123 -1.5891
10983SOL     OW34389   1.486   7.142   9.794 -0.1691 -0.3646 -0.5097
10983SOL    HW134390   1.419   7.159   9.729 -0.9707  0.0259  0.3982
10983SOL    HW234391   1.479   7.048   9.812 -0.0071 -0.4550 -0.9034
10984SOL     OW34392   5.005   5.236   2.792 -0.2733 -0.6885 -0.5493
10984SOL    HW134393   5.025   5.218   2.884 -0.6081  1.6385  0.0465
10984SOL    HW234394   4.913   5.209   2.782 -0.6047  0.0964  0.1676
10985SOL     OW34395   4.079   3.625   6.937 -0.0490 -0.3974 -0.4136
10985SOL    HW134396   3.989   3.597   6.950  0.2452 -0.4557  2.0643
10985SOL    HW234397   4.079   3.717   6.963  0.4726 -0.1888 -1.1221
10986SOL     OW34398   2.400   4.937   4.434 -0.1885 -0.0414 -0.7375
10986SOL    HW134399   2.408   5.029   4.457 -0.4093 -0.5733  1.7430
10986SOL    HW234400   2.470   4.894   4.484 -1.7470 -1.5191  0.2627
10987SOL     OW34401   0.090   6.633   6.866 -0.4793  0.0768  0.6887
10987SOL    HW134402   0.174   6.621   6.821 -1.3751 -0.5396 -0.8761
10987SOL    HW234403   0.099   6.717   6.911  0.9636  0.0268  0.5507
10988SOL     OW34404   4.713   2.182   6.994 -0.5596 -0.1518  0.0876
10988SOL    HW134405   4.705   2.117   7.064 -0.4280 -0.2139  0.0449
10988SOL    HW234406   4.629   2.227   6.994 -0.7882 -0.5632 -0.1204
10989SOL     OW34407   1.165   5.055   2.087  0.2545 -0.0434 -0.0493
10989SOL    HW134408   1.129   5.124   2.033  1.3689  0.4301 -0.2209
10989SOL    HW234409   1.203   5.100   2.163  1.2590 -0.4180 -0.3071
10990SOL     OW34410   3.657   7.791   2.234 -0.0173  0.1508  0.4417
10990SOL    HW134411   3.635   7.702   2.261  0.3285 -0.1916 -0.3533
10990SOL    HW234412   3.578   7.842   2.249 -0.4196 -0.4296  0.3194
10991SOL     OW34413   7.785   1.980  11.001 -0.0812  0.4617 -0.4846
10991SOL    HW134414   7.802   1.913  11.067 -0.3345  0.7367 -0.1360
10991SOL    HW234415   7.816   2.061  11.041  2.2378  0.2687 -1.7361
10992SOL     OW34416   3.060   5.206   3.581 -0.5626  0.4811 -0.0888
10992SOL    HW134417   3.005   5.250   3.646 -0.1526  1.4113 -0.3481
10992SOL    HW234418   2.999   5.160   3.524 -0.9910  0.5619  0.3020
10993SOL     OW34419   1.503   4.166   4.425  0.5393 -0.3865 -0.3302
10993SOL    HW134420   1.488   4.243   4.369  1.1756  0.5914  0.7920
10993SOL    HW234421   1.418   4.149   4.465 -0.1618 -1.6576 -2.2005
10994SOL     OW34422   7.152   4.156   4.866  0.3831  0.7628  0.1651
10994SOL    HW134423   7.058   4.143   4.868  0.4239  0.5525  1.0546
10994SOL    HW234424   7.172   4.208   4.944  0.9052  1.5127 -0.4526
10995SOL     OW34425   4.668   2.099   1.709 -0.1677  0.3533  0.2732
10995SOL    HW134426   4.686   2.043   1.633 -1.2257  1.1464 -0.5901
10995SOL    HW234427   4.754   2.124   1.741  0.3003 -0.0600 -0.6171
10996SOL     OW34428   7.319   7.787   5.169 -0.3078 -0.5683 -0.3165
10996SOL    HW134429   7.259   7.733   5.119 -1.0439 -0.7101  0.6926
10996SOL    HW234430   7.275   7.800   5.253  0.0312  1.2774 -0.3974
10997SOL     OW34431   5.423   7.558   0.701 -0.1917 -0.4003  0.0565
10997SOL    HW134432   5.384   7.595   0.622 -0.2403  0.9252  0.6887
10997SOL    HW234433   5.511   7.593   0.703 -0.2116 -0.3811  0.6340
10998SOL     OW34434   3.239   7.151   1.064 -0.0772 -0.4761 -0.5951
10998SOL    HW134435   3.306   7.102   1.016  1.7247 -1.1567  2.3317
10998SOL    HW234436   3.284   7.231   1.093  1.0015 -2.4961  4.4404
10999SOL     OW34437   4.796   6.254   2.359 -0.8130 -0.0596  0.5078
10999SOL    HW134438   4.802   6.279   2.267  0.9259 -0.2390  0.5239
10999SOL    HW234439   4.818   6.161   2.360  2.1171  0.5365  1.3259
11000SOL     OW34440   1.647   4.645  10.860  0.1792 -0.4203  0.0435
11000SOL    HW134441   1.654   4.648  10.956 -0.4493 -0.4753  0.0937
11000SOL    HW234442   1.553   4.641  10.843  0.2465  0.5050 -0.6080
11001SOL     OW34443   6.695   7.224   1.380 -0.0786 -0.2606 -0.0742
11001SOL    HW134444   6.625   7.168   1.346 -0.5468  1.8743 -3.0551
11001SOL    HW234445   6.776   7.181   1.351 -0.1160 -1.8697  1.9713
11002SOL     OW34446   1.070   5.175   4.963 -0.1636 -0.6211  0.3965
11002SOL    HW134447   1.104   5.086   4.953 -0.7258 -0.6911 -1.3872
11002SOL    HW234448   0.984   5.172   4.920 -0.9768  0.3620  1.8578
11003SOL     OW34449   2.469   1.197   2.819  0.3487 -0.2580  0.8495
11003SOL    HW134450   2.393   1.149   2.850  0.8493 -1.7825 -0.1738
11003SOL    HW234451   2.529   1.197   2.893 -0.7218  1.2383  1.7751
11004SOL     OW34452   5.012   1.576  10.550 -1.2371 -0.2809 -0.0280
11004SOL    HW134453   5.040   1.563  10.460 -2.4672 -2.6456 -0.1505
11004SOL    HW234454   4.916   1.569  10.547 -1.4231  1.0787  1.2722
11005SOL     OW34455   1.012   7.257   6.645 -0.6093 -0.3355 -0.2908
11005SOL    HW134456   1.036   7.164   6.647 -2.0203 -0.7288 -0.7295
11005SOL    HW234457   1.056   7.291   6.568 -1.4696 -1.0519 -1.1184
11006SOL     OW34458   2.516   4.848  11.784 -0.6671 -0.3427  0.5056
11006SOL    HW134459   2.513   4.917  11.718  0.8857  0.3285  1.0867
11006SOL    HW234460   2.560   4.775  11.740 -1.0085 -0.4541  0.3425
11007SOL     OW34461   5.943   4.449   6.692 -0.0505  0.0548 -0.1467
11007SOL    HW134462   5.987   4.440   6.777  0.0834  1.3112 -0.0583
11007SOL    HW234463   5.950   4.363   6.652  1.8954  0.0329  0.1599
11008SOL     OW34464   7.885   0.198   2.175 -0.2702  0.1152 -0.6083
11008SOL    HW134465   7.835   0.116   2.177 -0.9106  0.4972 -0.8333
11008SOL    HW234466   7.822   0.265   2.199  1.0651  0.1905  3.4073
11009SOL     OW34467   2.852   3.375   5.505  0.0088  0.9685  0.5528
11009SOL    HW134468   2.822   3.399   5.593 -1.2439  2.1673 -0.1773
11009SOL    HW234469   2.774   3.382   5.450  0.8520  0.5780 -0.7320
11010SOL     OW34470   5.826   1.298   4.240 -0.3080 -0.1137  0.3078
11010SOL    HW134471   5.755   1.359   4.221 -1.4769 -2.0025 -2.0239
11010SOL    HW234472   5.897   1.325   4.182  0.0834  0.4224  1.0173
11011SOL     OW34473   6.635   7.419   7.446 -0.0406  0.0203 -0.1132
11011SOL    HW134474   6.706   7.475   7.415  0.2230 -0.0776  0.3123
11011SOL    HW234475   6.555   7.461   7.413  0.1680  0.5063 -0.0069
11012SOL     OW34476   6.619   2.810   8.177 -0.3960 -0.6581  0.4329
11012SOL    HW134477   6.672   2.731   8.177 -0.1816 -0.5311 -0.6085
11012SOL    HW234478   6.664   2.870   8.118 -2.2881 -0.9879 -1.4679
11013SOL     OW34479   6.812   7.071   6.690 -0.3043  0.3325 -0.2703
11013SOL    HW134480   6.804   7.007   6.620 -0.2419  1.0810 -0.9769
11013SOL    HW234481   6.850   7.022   6.763 -1.8818 -0.8496 -0.1913
11014SOL     OW34482   5.359   5.901   4.185  0.2783  0.0409  0.1638
11014SOL    HW134483   5.387   5.975   4.238  2.0885 -0.3112 -0.2538
11014SOL    HW234484   5.295   5.938   4.124 -0.7290  0.7318  1.5864
11015SOL     OW34485   3.021   1.605   6.224 -0.5612  0.3907  0.2530
11015SOL    HW134486   3.029   1.535   6.289  1.0490  2.5222  2.5062
11015SOL    HW234487   3.111   1.631   6.204 -1.1001  1.5483 -0.8638
11016SOL     OW34488   4.437   3.218  10.006  0.1676  0.2024  0.4037
11016SOL    HW134489   4.529   3.206  10.028  0.4571  1.2555 -0.1659
11016SOL    HW234490   4.390   3.162  10.068  1.2403 -1.4103 -0.1638
11017SOL     OW34491   3.599   7.320   0.159  0.2148 -0.3146  0.0270
11017SOL    HW134492   3.624   7.331   0.250 -1.8581  0.3466  0.5756
11017SOL    HW234493   3.670   7.360   0.109  0.9510  0.1234  1.3696
11018SOL     OW34494   3.892   0.856   0.145  0.3838  0.2985  0.0663
11018SOL    HW134495   3.885   0.940   0.191 -1.7780  1.7725 -2.6612
11018SOL    HW234496   3.822   0.802   0.182  0.1065  0.6443  0.0465
11019SOL     OW34497   5.138   6.002  10.575  0.1840  0.4597  0.5439
11019SOL    HW134498   5.057   6.040  10.609 -0.7359 -1.0181  0.0495
11019SOL    HW234499   5.146   5.918  10.619  0.9950  0.1978 -0.0790
11020SOL     OW34500   1.819   6.106  12.362  0.7137 -0.1910 -0.8005
11020SOL    HW134501   1.856   6.080  12.447  1.5416  0.0074 -1.0935
11020SOL    HW234502   1.724   6.093  12.372  0.6320  1.2126  0.6525
11021SOL     OW34503   6.088   2.995  12.290 -0.1775 -0.3250 -0.4554
11021SOL    HW134504   6.029   3.070  12.288  0.4275  0.3107  1.8494
11021SOL    HW234505   6.030   2.919  12.292 -0.8028  0.0629 -2.3743
11022SOL     OW34506   7.249   6.544   7.030 -0.1539 -0.1333  0.3799
11022SOL    HW134507   7.193   6.545   7.107  0.8537 -0.1473  1.1352
11022SOL    HW234508   7.254   6.635   7.002 -0.4698 -0.1202  0.3694
11023SOL     OW34509   1.946   7.603   9.101 -0.7884 -0.0370  0.6345
11023SOL    HW134510   1.993   7.682   9.129 -0.8094  0.3582 -0.3952
11023SOL    HW234511   1.923   7.620   9.010  0.1717 -1.6813  0.0396
11024SOL     OW34512   0.014   1.342   5.343 -0.0814  0.1214 -0.1049
11024SOL    HW134513   0.095   1.392   5.338 -0.7040  1.1213 -0.5170
11024SOL    HW234514   0.034   1.259   5.299  0.6948  0.3826 -0.2573
11025SOL     OW34515   7.366   1.740   9.929 -0.4747 -0.5793  0.5378
11025SOL    HW134516   7.371   1.732   9.834 -0.2330 -0.7726  0.5669
11025SOL    HW234517   7.456   1.729   9.960 -0.2108  1.4680  0.6431
11026SOL     OW34518   7.244   6.086   9.256 -0.0740  0.1397 -0.2860
11026SOL    HW134519   7.330   6.047   9.271  0.3272  0.3018 -1.8932
11026SOL    HW234520   7.224   6.132   9.337 -0.2545 -2.7161  1.4359
11027SOL     OW34521   5.681   4.058   3.258  0.3963  0.0397 -0.5510
11027SOL    HW134522   5.647   3.970   3.275  2.8388 -0.8209  0.2751
11027SOL    HW234523   5.730   4.050   3.176 -0.8476  1.1290 -1.4513
11028SOL     OW34524   4.766   3.354   3.516 -0.6153 -0.7077 -0.0675
11028SOL    HW134525   4.681   3.317   3.542 -0.5279 -1.7636 -1.2014
11028SOL    HW234526   4.828   3.318   3.580 -0.8990 -0.5899  0.2763
11029SOL     OW34527   7.194   6.229   2.168 -0.7988  0.7132 -0.1617
11029SOL    HW134528   7.281   6.191   2.151 -0.4980  1.2096  0.2376
11029SOL    HW234529   7.174   6.278   2.088 -1.0961 -0.0854 -0.5959
11030SOL     OW34530   2.794   5.906   0.979 -0.3368 -0.2716  0.1904
11030SOL    HW134531   2.751   5.991   0.969  0.3315  0.0179 -0.2933
11030SOL    HW234532   2.855   5.901   0.906  1.7663  0.1250  1.8077
11031SOL     OW34533   7.830   2.564   6.000 -0.1341 -0.0464 -0.0150
11031SOL    HW134534   7.833   2.487   6.057  1.7047  0.2143  0.2742
11031SOL    HW234535   7.738   2.592   6.004 -0.5471 -1.4133  0.9433
11032SOL     OW34536   2.969   4.679   8.220  0.0409  0.1049  0.6909
11032SOL    HW134537   2.887   4.665   8.267 -0.6446  0.2020 -0.4273
11032SOL    HW234538   2.964   4.621   8.144 -0.4679  2.3237 -1.1199
11033SOL     OW34539   7.701   4.426   7.535 -0.5925  0.0432 -0.1499
11033SOL    HW134540   7.719   4.402   7.443 -0.4997  0.4008 -0.2272
11033SOL    HW234541   7.785   4.412   7.579 -0.8492 -0.9193  0.0535
11034SOL     OW34542   4.022   2.785   8.678 -0.5187  0.4542 -0.5469
11034SOL    HW134543   4.056   2.696   8.676 -0.6378  0.4046 -0.2590
11034SOL    HW234544   4.092   2.838   8.638 -0.4641  0.2288 -0.7489
11035SOL     OW34545   3.070   3.045   8.822  0.0287  0.0008  0.0521
11035SOL    HW134546   3.126   3.122   8.835 -0.7940  0.6301 -0.0466
11035SOL    HW234547   3.132   2.974   8.805  0.7993  0.7070 -0.2145
11036SOL     OW34548   2.101   1.853   7.300  0.3209  0.0410 -0.3642
11036SOL    HW134549   2.047   1.924   7.266  1.2313  0.1444 -1.6540
11036SOL    HW234550   2.072   1.776   7.252  0.9531  0.0001 -0.6854
11037SOL     OW34551   2.919   5.431   6.867 -0.3196  0.1287  0.2157
11037SOL    HW134552   2.972   5.434   6.946  0.3466  2.5339 -0.2199
11037SOL    HW234553   2.832   5.459   6.895 -0.6136 -0.9533  0.4171
11038SOL     OW34554   6.049   6.753  11.580  0.1226  0.1700 -0.0207
11038SOL    HW134555   5.990   6.818  11.617  0.2323  0.6364 -0.6512
11038SOL    HW234556   5.991   6.689  11.538  0.0663  0.8644 -1.0252
11039SOL     OW34557   5.760   4.325   2.289 -0.1070 -0.0153 -0.6382
11039SOL    HW134558   5.674   4.352   2.258 -0.3453  1.6451  1.2040
11039SOL    HW234559   5.819   4.393   2.258  0.1404  0.0471 -0.0531
11040SOL     OW34560   5.613   6.346  12.424  0.0891  0.3243  0.3936
11040SOL    HW134561   5.683   6.405  12.452  0.6633  0.6155 -1.5331
11040SOL    HW234562   5.659   6.271  12.386 -0.5916  0.8323 -1.5454
11041SOL     OW34563   6.221   5.230  10.994  0.3588 -0.2545  0.5712
11041SOL    HW134564   6.160   5.211  11.065 -0.3871 -1.0052 -0.2499
11041SOL    HW234565   6.280   5.155  10.992  0.5388 -0.1149  0.5462
11042SOL     OW34566   2.818   4.147   1.872  0.1031 -0.4226 -0.3173
11042SOL    HW134567   2.813   4.088   1.797 -1.6749 -0.4243 -0.2376
11042SOL    HW234568   2.903   4.190   1.863  0.4134 -1.2676 -1.6819
11043SOL     OW34569   0.966   0.446   6.838 -0.4238  0.2079 -0.4531
11043SOL    HW134570   0.878   0.440   6.876 -0.7347  1.1951 -0.9804
11043SOL    HW234571   0.971   0.372   6.777  0.5570 -2.2082  2.3163
11044SOL     OW34572   6.574   1.741   7.744 -0.3909  0.2774  0.0577
11044SOL    HW134573   6.520   1.717   7.819  0.6756 -0.5204  0.5960
11044SOL    HW234574   6.520   1.721   7.668 -2.3021  3.0179  0.5500
11045SOL     OW34575   7.246   6.945  10.704 -0.0159  0.5136 -0.0245
11045SOL    HW134576   7.307   6.933  10.631 -0.2606  1.1199 -0.3370
11045SOL    HW234577   7.301   6.974  10.776  0.3472 -0.8621  0.2785
11046SOL     OW34578   4.983   3.612  11.692  0.1831  0.2201  0.5144
11046SOL    HW134579   4.899   3.656  11.681 -0.3763 -0.7821  0.7259
11046SOL    HW234580   4.990   3.597  11.786  1.5137  2.0294  0.7674
11047SOL     OW34581   0.372   5.358   0.668 -0.5592 -0.0214  0.2023
11047SOL    HW134582   0.421   5.315   0.598 -1.1861  0.7500 -0.7320
11047SOL    HW234583   0.413   5.444   0.676 -1.2932  0.3667 -0.1018
11048SOL     OW34584   0.511   7.482  11.434 -0.7590  0.4142  0.0186
11048SOL    HW134585   0.475   7.533  11.362 -0.3231  1.3006  0.4206
11048SOL    HW234586   0.441   7.481  11.499 -0.9531  0.0642 -0.1906
11049SOL     OW34587   1.873   4.383   3.365 -0.0648 -0.1115 -0.0284
11049SOL    HW134588   1.896   4.401   3.274 -4.2030 -0.3296 -1.3292
11049SOL    HW234589   1.902   4.294   3.380  1.9314  0.4050 -0.6123
11050SOL     OW34590   1.658   6.608   7.731  0.5265 -0.0648  0.0085
11050SOL    HW134591   1.569   6.575   7.729  0.4070  0.1879  0.9591
11050SOL    HW234592   1.656   6.683   7.791  1.4158 -0.1703  0.1938
11051SOL     OW34593   2.708   4.335   1.485 -0.5532 -0.4396  0.4583
11051SOL    HW134594   2.686   4.382   1.405  0.5843 -2.3189 -1.0502
11051SOL    HW234595   2.796   4.364   1.507 -0.7840 -0.0825  0.9499
11052SOL     OW34596   3.650   1.872   7.649  0.2682 -0.0027  0.1000
11052SOL    HW134597   3.708   1.948   7.654  0.7039 -0.3000 -0.3589
11052SOL    HW234598   3.602   1.873   7.732  0.0464  0.9485 -0.0381
11053SOL     OW34599   4.770   0.438   4.020  0.3197  0.5317  0.5665
11053SOL    HW134600   4.834   0.379   3.979  0.9995  0.0184  2.3108
11053SOL    HW234601   4.811   0.524   4.016 -0.5114  0.8937 -1.6403
11054SOL     OW34602   1.982   6.680   0.982  0.0797 -0.1574 -0.3966
11054SOL    HW134603   2.014   6.597   0.947 -1.0118 -0.5173 -0.6025
11054SOL    HW234604   1.895   6.690   0.943 -1.0189 -0.3458  1.8669
11055SOL     OW34605   2.890   7.344   3.555 -0.1011  0.6193 -0.1640
11055SOL    HW134606   2.918   7.390   3.634 -3.1738 -1.7477  2.5876
11055SOL    HW234607   2.957   7.278   3.540  0.6743  1.3008  0.2605
11056SOL     OW34608   1.875   7.717   6.057 -0.1376  0.2295 -0.6761
11056SOL    HW134609   1.871   7.673   6.142  0.7400  0.7856 -0.3309
11056SOL    HW234610   1.925   7.657   6.002  3.2507  1.7570  0.4801
11057SOL     OW34611   5.971   7.757   8.765 -0.0904  0.2044  0.3048
11057SOL    HW134612   5.949   7.844   8.733  0.8567  0.4103  0.1827
11057SOL    HW234613   6.063   7.744   8.741 -0.1666 -0.7644  0.4622
11058SOL     OW34614   4.406   4.463   7.631  0.6478 -0.0403  0.0849
11058SOL    HW134615   4.327   4.485   7.680  0.4983 -0.1465 -0.1061
11058SOL    HW234616   4.415   4.368   7.641  1.1016  0.0551  0.6276
11059SOL     OW34617   4.467   5.041  10.252  0.0642 -0.3521  0.1974
11059SOL    HW134618   4.419   5.123  10.250 -0.3103 -0.5612  0.5349
11059SOL    HW234619   4.409   4.977  10.211 -0.6351 -0.9545  2.0343
11060SOL     OW34620   1.495   6.963  10.433 -0.2792 -0.1109 -0.1163
11060SOL    HW134621   1.522   6.994  10.346 -2.1707  1.8684 -0.0782
11060SOL    HW234622   1.407   6.928  10.420 -0.7070  0.4748  1.0161
11061SOL     OW34623   2.491   4.938  11.518  0.0538 -0.6024 -0.4797
11061SOL    HW134624   2.455   5.022  11.487 -0.4146 -0.8316 -0.5587
11061SOL    HW234625   2.535   4.902  11.441 -1.3116 -1.2821 -0.9741
11062SOL     OW34626   1.108   3.666   5.304  0.1902  0.2065 -0.6188
11062SOL    HW134627   1.124   3.747   5.256 -0.3761  2.0097  2.0188
11062SOL    HW234628   1.052   3.614   5.246  0.8948  1.4807 -2.5387
11063SOL     OW34629   7.838   6.042   4.321  0.4273  0.1871 -0.4408
11063SOL    HW134630   7.744   6.023   4.319  0.2954  0.5998  0.7016
11063SOL    HW234631   7.870   6.015   4.236 -0.5639 -0.8200 -0.5169
11064SOL     OW34632   6.959   3.736   5.225  0.2564  0.2760  0.1391
11064SOL    HW134633   7.011   3.788   5.286  3.2998 -1.5982 -0.5870
11064SOL    HW234634   6.987   3.765   5.138 -0.2318 -0.4859 -0.2926
11065SOL     OW34635   3.407   2.830   6.419  0.4583 -0.2795 -0.1767
11065SOL    HW134636   3.335   2.858   6.362 -0.3719 -1.2073  0.4071
11065SOL    HW234637   3.365   2.797   6.498  1.6122  2.1161  1.5649
11066SOL     OW34638   1.133   5.004   1.179 -0.2375  0.5584  0.2201
11066SOL    HW134639   1.187   4.928   1.157 -0.4128  0.3269  0.5777
11066SOL    HW234640   1.046   4.982   1.147 -0.1925  0.7890 -0.0571
11067SOL     OW34641   1.998   4.123  10.487 -0.0060  0.3540 -0.2226
11067SOL    HW134642   2.041   4.147  10.569  0.8406  0.0354 -0.5593
11067SOL    HW234643   1.921   4.180  10.483  0.0745  0.5389  0.6713
11068SOL     OW34644   2.376   6.384  10.660 -0.2170  0.2367 -0.0839
11068SOL    HW134645   2.351   6.355  10.572 -0.2119  0.4502 -0.1581
11068SOL    HW234646   2.471   6.370  10.663 -0.3764 -0.8412  0.3012
11069SOL     OW34647   4.912   0.567   7.738 -0.0655 -0.0244 -0.4470
11069SOL    HW134648   4.840   0.542   7.796  0.2495 -0.2894 -0.1658
11069SOL    HW234649   4.871   0.576   7.652 -0.1118 -1.9908 -0.6597
11070SOL     OW34650   3.702   7.730  10.111  0.7726  0.0319 -0.2860
11070SOL    HW134651   3.644   7.664  10.071  0.3030  1.4770 -2.1668
11070SOL    HW234652   3.757   7.760  10.038  2.2964  0.3565  0.9657
11071SOL     OW34653   0.032   3.324  10.524 -0.3075  0.3248 -0.4125
11071SOL    HW134654  -0.048   3.282  10.491  0.6297 -0.4844 -1.7480
11071SOL    HW234655   0.081   3.347  10.445  1.2774 -0.1868  0.3936
11072SOL     OW34656   0.429   1.591   8.733  0.3844 -0.4136  0.1750
11072SOL    HW134657   0.410   1.601   8.826  3.2009 -1.4382  0.9797
11072SOL    HW234658   0.524   1.604   8.726  0.4349 -1.4905 -2.3694
11073SOL     OW34659   0.242   2.710  11.955  0.0781 -0.6825 -0.3936
11073SOL    HW134660   0.250   2.704  11.860  0.6549 -3.4953 -0.2653
11073SOL    HW234661   0.332   2.714  11.987 -0.1117  0.1817  0.0697
11074SOL     OW34662   0.579   4.389   1.514 -0.2879  0.6544  0.2047
11074SOL    HW134663   0.543   4.420   1.598  1.6507  0.2795  1.2251
11074SOL    HW234664   0.635   4.316   1.538 -0.2309  0.0860 -1.5358
11075SOL     OW34665   4.826   7.206   8.899 -0.0481  0.5135 -0.1443
11075SOL    HW134666   4.897   7.196   8.962  0.0926 -0.1521 -0.4066
11075SOL    HW234667   4.865   7.181   8.815 -0.1800  1.5716 -0.5390
11076SOL     OW34668   5.259   4.761   2.867 -0.2137  0.7498 -0.4875
11076SOL    HW134669   5.267   4.843   2.818 -2.0820  0.3067 -1.6043
11076SOL    HW234670   5.196   4.709   2.818  0.2310 -1.0098  0.7060
11077SOL     OW34671   0.196   3.886   3.185 -0.4777  0.3041 -0.2624
11077SOL    HW134672   0.183   3.978   3.164  0.5790  0.2922 -1.0420
11077SOL    HW234673   0.282   3.883   3.227 -1.9494  0.1403  3.0696
11078SOL     OW34674   4.005   5.190  12.061 -0.4422  0.1687 -0.5993
11078SOL    HW134675   3.980   5.263  12.118  0.0357 -0.1417  0.0201
11078SOL    HW234676   4.045   5.231  11.985  1.5397  0.5163  0.5683
11079SOL     OW34677   3.616   4.972   1.769  0.2625  0.6702  0.1436
11079SOL    HW134678   3.558   4.944   1.840 -0.4161  1.0431 -0.2435
11079SOL    HW234679   3.698   4.926   1.784 -0.2897 -0.2383  0.4494
11080SOL     OW34680   4.725   6.896   3.901 -0.4632  0.3225 -0.1461
11080SOL    HW134681   4.693   6.944   3.977  0.7548 -0.0335  0.6241
11080SOL    HW234682   4.815   6.873   3.924 -0.2387 -0.2230 -1.4992
11081SOL     OW34683   6.124   2.487   1.616  0.1716  0.0480 -0.0703
11081SOL    HW134684   6.070   2.463   1.541 -0.6650  0.6848  0.3212
11081SOL    HW234685   6.177   2.561   1.585 -0.5152  0.6197  0.1024
11082SOL     OW34686   6.054   2.917   2.328 -0.2115  0.0273  0.1480
11082SOL    HW134687   5.963   2.922   2.359 -1.2984  0.0789 -2.7403
11082SOL    HW234688   6.075   2.824   2.330 -0.6503 -0.0773 -0.0195
11083SOL     OW34689   5.374   3.544   2.082  0.6179  0.2209 -0.3398
11083SOL    HW134690   5.279   3.549   2.073  0.3127 -2.4507  0.4604
11083SOL    HW234691   5.398   3.462   2.039  2.3810  0.1463  0.6981
11084SOL     OW34692   6.361   4.171   9.626 -0.5843  0.4837 -0.4208
11084SOL    HW134693   6.410   4.096   9.659 -1.1315  0.1813 -0.2912
11084SOL    HW234694   6.318   4.139   9.547 -0.4623  0.7883 -0.6112
11085SOL     OW34695   3.707   6.417   5.802  0.0437 -0.1014 -0.1679
11085SOL    HW134696   3.684   6.485   5.738  0.5243 -0.4039 -0.6758
11085SOL    HW234697   3.628   6.407   5.856  0.1064  1.1212  0.1606
11086SOL     OW34698   1.318   1.648  10.846 -0.3821 -0.8267 -0.5566
11086SOL    HW134699   1.368   1.627  10.925 -0.8976  0.0548  0.0209
11086SOL    HW234700   1.381   1.640  10.775  0.9940  1.6168  0.2865
11087SOL     OW34701   1.224   2.004   9.446  0.5077  0.4489 -0.6715
11087SOL    HW134702   1.256   1.915   9.438 -0.4375  0.0319 -0.0571
11087SOL    HW234703   1.253   2.048   9.366  0.5707 -0.5379 -1.2003
11088SOL     OW34704   5.157   3.907   8.067  0.7357 -0.0076 -0.3365
11088SOL    HW134705   5.228   3.935   8.009  0.1065  0.1817 -1.0341
11088SOL    HW234706   5.187   3.932   8.154  0.9791  1.2559 -0.7503
11089SOL     OW34707   4.335   2.584  10.430  0.3402  0.6407 -0.3433
11089SOL    HW134708   4.375   2.642  10.365  0.0845  0.3690 -0.7486
11089SOL    HW234709   4.267   2.637  10.470  1.7140  1.4489  1.0598
11090SOL     OW34710   6.885   5.666   7.366 -0.5325 -0.0262  0.3641
11090SOL    HW134711   6.826   5.590   7.369 -0.9412 -0.0573 -3.8456
11090SOL    HW234712   6.827   5.742   7.360 -0.1959  0.1487 -0.9771
11091SOL     OW34713   6.093   5.076   2.391  0.0834 -0.4695 -0.0171
11091SOL    HW134714   6.135   4.992   2.411 -0.8147 -1.2523 -1.3164
11091SOL    HW234715   6.150   5.115   2.325  0.1942 -0.2965  0.1773
11092SOL     OW34716   3.631   6.742  11.459 -0.5813 -0.0711  0.3650
11092SOL    HW134717   3.588   6.824  11.486 -1.3752 -0.4314  0.2209
11092SOL    HW234718   3.586   6.716  11.379  0.3791 -0.1050 -0.1737
11093SOL     OW34719   7.670   2.713   5.120 -0.4523  0.9022 -0.1185
11093SOL    HW134720   7.669   2.665   5.038  0.8125  3.1157 -1.5339
11093SOL    HW234721   7.716   2.655   5.181 -0.1709 -0.2202 -1.3491
11094SOL     OW34722   1.012   2.169   9.499  0.2571 -0.9150 -0.4281
11094SOL    HW134723   1.076   2.098   9.490 -0.6193 -1.5314 -2.2222
11094SOL    HW234724   0.971   2.176   9.413 -0.2547  1.2605 -0.0682
11095SOL     OW34725   3.112   4.361   6.514  0.2396  0.1978 -0.2868
11095SOL    HW134726   3.063   4.379   6.594 -0.2231  1.1215 -0.7576
11095SOL    HW234727   3.163   4.441   6.499 -1.7658  1.2377 -2.3670
11096SOL     OW34728   0.573   2.142   7.442 -0.0874  0.4708  0.1288
11096SOL    HW134729   0.542   2.207   7.504 -1.8124  0.3117 -0.4836
11096SOL    HW234730   0.668   2.147   7.445 -0.1674  3.1853 -0.0902
11097SOL     OW34731   1.539   2.265   6.967  0.0952  0.1233 -0.3228
11097SOL    HW134732   1.536   2.174   6.997  0.2915  0.2072 -0.0397
11097SOL    HW234733   1.554   2.316   7.047  0.2258  0.3841 -0.5121
11098SOL     OW34734   3.933   0.005  10.449  0.2373 -0.2037 -0.5982
11098SOL    HW134735   3.967  -0.085  10.442 -0.9768 -0.7381  0.0118
11098SOL    HW234736   3.986   0.055  10.387  0.5203 -1.4678 -1.4220
11099SOL     OW34737   1.986   1.737   4.118 -0.2965  0.6192 -0.4604
11099SOL    HW134738   1.994   1.751   4.024 -0.4559  1.0886 -0.4068
11099SOL    HW234739   2.057   1.789   4.156  0.0630  0.0601 -0.3430
11100SOL     OW34740   0.421   4.837  10.667  0.3812 -0.1705 -0.2422
11100SOL    HW134741   0.390   4.762  10.718  1.1898  0.2345  0.8938
11100SOL    HW234742   0.514   4.844  10.689  0.6338  0.3326 -1.4032
11101SOL     OW34743   1.331   3.140   3.001 -0.2210 -0.2073  0.8992
11101SOL    HW134744   1.261   3.129   2.937 -1.7532  1.4874  2.1872
11101SOL    HW234745   1.319   3.067   3.062 -0.0190 -0.6665  0.4032
11102SOL     OW34746   1.293   7.967   0.349 -0.1893 -0.4667 -0.0855
11102SOL    HW134747   1.213   7.917   0.337  0.0074 -0.8118  0.0127
11102SOL    HW234748   1.265   8.058   0.357 -0.5067 -0.4856 -0.9016
11103SOL     OW34749   1.997   3.814   3.376 -0.5530  0.2920  0.3486
11103SOL    HW134750   2.045   3.890   3.342  0.0862 -0.4732 -0.5220
11103SOL    HW234751   1.951   3.779   3.299  0.8567 -1.4321  0.2216
11104SOL     OW34752   7.491   7.609   1.534 -0.3433 -0.1828 -0.1617
11104SOL    HW134753   7.575   7.625   1.578 -0.3361  0.7526 -0.4956
11104SOL    HW234754   7.432   7.583   1.605 -0.1227  0.5081  0.2862
11105SOL     OW34755   1.048   6.023  11.701  0.3121  0.3178  0.1834
11105SOL    HW134756   1.089   5.949  11.743  0.3936  0.5908  0.5903
11105SOL    HW234757   1.116   6.091  11.699 -0.3329  1.0647  1.6307
11106SOL     OW34758   5.862   7.568   9.412 -0.5595 -0.2866  0.0050
11106SOL    HW134759   5.878   7.609   9.497  0.5479  0.7197 -0.6607
11106SOL    HW234760   5.785   7.613   9.378 -1.8969 -1.6742  1.0495
11107SOL     OW34761   5.271   7.740   4.046 -0.3115  0.1307  0.3234
11107SOL    HW134762   5.265   7.645   4.041 -1.3334  0.2348 -1.0756
11107SOL    HW234763   5.288   7.768   3.956  0.7768  1.2477  0.8408
11108SOL     OW34764   5.083   1.712   2.007 -0.1804 -0.0204  0.2878
11108SOL    HW134765   5.033   1.781   1.963  1.7161  2.1084  1.2943
11108SOL    HW234766   5.016   1.654   2.044 -1.8954  1.9281  0.4067
11109SOL     OW34767   6.576   6.486   4.355  0.1368  0.0247 -0.1965
11109SOL    HW134768   6.657   6.460   4.312  0.2638 -0.7307  0.4837
11109SOL    HW234769   6.523   6.406   4.357  0.6517 -0.3196  2.2046
11110SOL     OW34770   1.487   7.827  10.362 -0.2810 -0.6522  0.1721
11110SOL    HW134771   1.555   7.788  10.307  0.0364 -0.6624  0.5691
11110SOL    HW234772   1.462   7.758  10.422 -1.5595 -1.0604 -0.7886
11111SOL     OW34773   1.994   3.806   2.537 -0.2387  0.7206 -0.3779
11111SOL    HW134774   2.088   3.796   2.556 -0.4458 -0.7863 -0.0007
11111SOL    HW234775   1.985   3.897   2.510  0.7870  1.8668  2.7275
11112SOL     OW34776   3.785   3.741   6.595  0.2478  0.2836  0.3156
11112SOL    HW134777   3.716   3.675   6.598  0.2827  0.2479  0.3376
11112SOL    HW234778   3.797   3.766   6.687 -0.5483  1.1363  0.1963
11113SOL     OW34779   1.716   6.264   4.336 -0.1508 -0.1583 -0.0066
11113SOL    HW134780   1.780   6.322   4.377  1.7027 -0.9871 -1.5808
11113SOL    HW234781   1.674   6.219   4.409  1.9356 -0.4750  1.0693
11114SOL     OW34782   2.108   3.658   7.060  0.0341  0.2710  0.5818
11114SOL    HW134783   2.165   3.727   7.027 -0.1146  1.3933  2.5281
11114SOL    HW234784   2.019   3.690   7.044 -0.0571 -0.3909 -0.2949
11115SOL     OW34785   7.353   1.274   5.001  0.8060  0.0909  0.1474
11115SOL    HW134786   7.328   1.325   5.078 -0.0343 -1.6170  1.0802
11115SOL    HW234787   7.419   1.327   4.957  0.7486  1.4722  1.6327
11116SOL     OW34788   2.419   3.930   7.157 -0.0257 -0.2912 -0.3897
11116SOL    HW134789   2.502   3.945   7.112  0.5517 -0.3794  0.6000
11116SOL    HW234790   2.444   3.923   7.249 -1.0589 -0.9830 -0.1529
11117SOL     OW34791   2.872   4.151   4.184  0.3725  0.1090 -0.6130
11117SOL    HW134792   2.903   4.241   4.177 -0.1576  0.2953 -0.6405
11117SOL    HW234793   2.785   4.153   4.143 -0.0584 -0.1986  0.2787
11118SOL     OW34794   5.270   3.841   3.646 -0.1123 -0.2104 -0.1385
11118SOL    HW134795   5.196   3.889   3.684  0.5845 -0.2669  1.3704
11118SOL    HW234796   5.280   3.878   3.558 -1.4829  0.2735 -0.1234
11119SOL     OW34797   2.255   5.341   1.898  0.1368 -0.3457 -0.1513
11119SOL    HW134798   2.314   5.375   1.830 -1.2750 -1.4512 -2.0415
11119SOL    HW234799   2.288   5.254   1.918  1.2401  0.4246  1.5037
11120SOL     OW34800   2.426   1.128  12.350 -0.7325 -0.1446 -0.1313
11120SOL    HW134801   2.391   1.051  12.305  0.5554 -0.0680 -1.3427
11120SOL    HW234802   2.482   1.170  12.284  0.2153  0.6814  1.1666
11121SOL     OW34803   1.433   6.704  10.877 -0.4487  0.2183 -0.3744
11121SOL    HW134804   1.436   6.612  10.852  0.8730  0.0042  0.4541
11121SOL    HW234805   1.491   6.748  10.815  0.3812  0.1778  0.3507
11122SOL     OW34806   5.184   0.721   2.743  1.2983 -0.4410 -0.4222
11122SOL    HW134807   5.142   0.651   2.794  0.1465 -1.0628 -2.1343
11122SOL    HW234808   5.235   0.770   2.808 -0.8038 -0.6162  1.5094
11123SOL     OW34809   0.422   3.378   6.894 -0.3888  0.1962  0.0028
11123SOL    HW134810   0.395   3.398   6.984  1.3566 -0.5432  0.7251
11123SOL    HW234811   0.451   3.287   6.896  0.7846  0.5193 -1.0323
11124SOL     OW34812   1.035   0.820  12.161 -0.3425 -0.4580 -0.3709
11124SOL    HW134813   1.021   0.880  12.087 -0.5673  0.3187  0.2792
11124SOL    HW234814   1.014   0.873  12.238 -0.3140 -1.3167  0.2383
11125SOL     OW34815   7.844   7.510   6.911 -0.0945 -0.0868  0.1161
11125SOL    HW134816   7.930   7.536   6.878 -1.1882  1.9523 -1.3415
11125SOL    HW234817   7.857   7.421   6.943  2.3006 -0.2427 -1.0638
11126SOL     OW34818   2.015   0.141   3.086 -0.6526  0.0513  0.1889
11126SOL    HW134819   2.060   0.123   3.003 -0.2811 -1.5244  0.6947
11126SOL    HW234820   2.019   0.058   3.133 -0.4382  1.0452  1.9889
11127SOL     OW34821   1.423   2.738   6.481 -0.5828 -0.0696 -0.1030
11127SOL    HW134822   1.485   2.666   6.494 -1.5774 -1.0623 -0.6441
11127SOL    HW234823   1.406   2.772   6.569 -0.4812 -0.8364  0.2188
11128SOL     OW34824   2.638   5.017   4.644  0.1451  0.3677 -0.3479
11128SOL    HW134825   2.663   4.981   4.559 -1.1627 -0.7335 -0.2998
11128SOL    HW234826   2.701   4.979   4.705  1.6583  1.8724 -0.8985
11129SOL     OW34827   7.617   6.204  11.765 -0.0164  0.1329 -0.0375
11129SOL    HW134828   7.626   6.117  11.726  1.1992 -0.6725  1.9340
11129SOL    HW234829   7.533   6.201  11.811 -0.3035  0.2737 -0.5348
11130SOL     OW34830   3.228   7.073   2.604 -0.0937 -0.2782 -0.6281
11130SOL    HW134831   3.148   7.121   2.627 -1.2398 -2.4468  0.2494
11130SOL    HW234832   3.244   7.015   2.679  2.9140  0.7508 -0.3417
11131SOL     OW34833   1.836   6.055   9.305 -0.1378 -0.0255 -0.4750
11131SOL    HW134834   1.900   6.004   9.355  0.2311 -0.1254 -1.0457
11131SOL    HW234835   1.773   6.085   9.371  1.0608  0.9533  0.2440
11132SOL     OW34836   2.327   3.589  11.006  0.5628 -0.2294  0.0799
11132SOL    HW134837   2.364   3.676  10.992 -1.5737  0.9109  1.1129
11132SOL    HW234838   2.401   3.537  11.040  1.8947  1.1286 -0.6423
11133SOL     OW34839   2.476   4.233  11.310 -0.4023  0.2069 -0.8291
11133SOL    HW134840   2.527   4.170  11.361 -1.2174  0.0909 -0.1286
11133SOL    HW234841   2.481   4.314  11.360 -1.3669  0.0428 -0.4397
11134SOL     OW34842   2.415   0.142   9.058  0.1992 -0.3697 -0.5971
11134SOL    HW134843   2.386   0.230   9.034  0.8199 -0.4292 -1.5834
11134SOL    HW234844   2.496   0.156   9.106  0.0400 -0.3799 -0.3223
11135SOL     OW34845   1.674   1.214  11.276  0.7872  0.2812  0.0069
11135SOL    HW134846   1.707   1.303  11.265 -2.0425  1.3161 -1.2912
11135SOL    HW234847   1.586   1.225  11.312  0.1599 -1.9475 -0.6359
11136SOL     OW34848   4.879   5.380   5.416 -0.3276 -0.1379  0.0243
11136SOL    HW134849   4.969   5.372   5.383 -0.0820  1.8743  0.0878
11136SOL    HW234850   4.827   5.397   5.338 -0.2374  1.3181  0.2582
11137SOL     OW34851   2.926   4.537   1.162  0.5800 -0.5481 -0.0537
11137SOL    HW134852   2.983   4.533   1.085  1.3957  1.2770  0.4139
11137SOL    HW234853   2.857   4.473   1.143  1.7760 -1.5082 -1.4387
11138SOL     OW34854   3.891   6.005   0.907 -0.4717  0.2772 -0.1991
11138SOL    HW134855   3.895   5.913   0.881 -0.2856  0.7707 -2.0853
11138SOL    HW234856   3.898   6.004   1.002  1.1175 -1.5533 -0.2885
11139SOL     OW34857   6.280   1.995   3.509  0.9295  0.0006 -0.0784
11139SOL    HW134858   6.232   1.912   3.517 -1.0388  1.0405 -0.4740
11139SOL    HW234859   6.284   2.029   3.598  0.7077  0.0462 -0.0871
11140SOL     OW34860   1.393   4.569   2.886 -0.0838 -0.0595 -0.4743
11140SOL    HW134861   1.416   4.581   2.978  1.9139 -0.7158 -0.8438
11140SOL    HW234862   1.313   4.517   2.888 -0.0644 -0.0850  0.8781
11141SOL     OW34863   3.191   3.101   3.506 -0.6268 -0.5347  0.5275
11141SOL    HW134864   3.164   3.193   3.503 -0.4790 -0.4220  2.0720
11141SOL    HW234865   3.273   3.100   3.456 -1.7032 -0.2723 -1.3628
11142SOL     OW34866   7.702   5.289   5.200 -0.2210 -0.8497 -0.3174
11142SOL    HW134867   7.625   5.232   5.201  0.1468 -1.3485  1.4236
11142SOL    HW234868   7.747   5.272   5.283  1.6370 -0.3728 -1.1633
11143SOL     OW34869   5.724   0.294  10.554 -0.6612  0.1204 -0.2772
11143SOL    HW134870   5.663   0.289  10.480 -1.0160  0.1056  0.0138
11143SOL    HW234871   5.774   0.374  10.539 -1.8806  1.0259  0.3352
11144SOL     OW34872   6.738   7.027   8.628  0.4151 -0.2789 -0.4669
11144SOL    HW134873   6.714   7.039   8.720  0.6914 -1.0175 -0.2892
11144SOL    HW234874   6.795   7.102   8.609  1.9818 -1.1432  0.5601
11145SOL     OW34875   7.658   3.029  11.790  0.8609 -0.5757 -1.0448
11145SOL    HW134876   7.749   3.059  11.794  1.1007 -1.2679 -1.1202
11145SOL    HW234877   7.617   3.085  11.724  1.3300 -0.5092 -1.2858
11146SOL     OW34878   2.769   4.777   7.753 -0.0155  0.3047 -0.2803
11146SOL    HW134879   2.794   4.729   7.832  0.4006 -0.0368 -0.6132
11146SOL    HW234880   2.779   4.870   7.777  0.3560  0.1973 -0.0061
11147SOL     OW34881   1.465   2.944   5.016 -0.8645  0.0263  0.0266
11147SOL    HW134882   1.497   2.879   4.953  1.3535 -0.3266  1.4393
11147SOL    HW234883   1.500   2.916   5.100 -3.5785  0.6037  1.4768
11148SOL     OW34884   1.363   2.783   5.530  0.1943 -0.6281 -0.9731
11148SOL    HW134885   1.353   2.727   5.454 -2.7027  0.8606 -1.8299
11148SOL    HW234886   1.331   2.730   5.603  0.2682 -1.0865 -1.2677
11149SOL     OW34887   0.713   7.763   0.411 -0.1687 -0.2948  0.1736
11149SOL    HW134888   0.719   7.847   0.364 -1.2654 -0.0194  0.4908
11149SOL    HW234889   0.712   7.697   0.342 -0.5672  0.0308 -0.1334
11150SOL     OW34890   0.322   1.163   9.445  0.2434  0.0843 -0.1179
11150SOL    HW134891   0.280   1.126   9.522 -0.9190 -0.3456 -0.9256
11150SOL    HW234892   0.412   1.132   9.450 -0.0897 -0.8267  0.5119
11151SOL     OW34893   6.944   6.572   2.718 -0.3387  0.2166 -0.3836
11151SOL    HW134894   7.027   6.601   2.754  0.5534 -1.8216 -0.6751
11151SOL    HW234895   6.950   6.592   2.624  0.4438 -1.1946 -0.6576
11152SOL     OW34896   7.416   3.623  10.154  0.2451 -0.2502 -0.0197
11152SOL    HW134897   7.420   3.572  10.073 -1.4787  0.1652 -0.3938
11152SOL    HW234898   7.431   3.713  10.125  0.0959 -0.1588  0.1913
11153SOL     OW34899   4.121   7.419  10.487 -0.1426  0.2690 -0.3310
11153SOL    HW134900   4.116   7.389  10.396 -1.6192  0.0912 -0.2199
11153SOL    HW234901   4.043   7.381  10.529  1.5722 -1.3931  1.5695
11154SOL     OW34902   5.241   2.682   2.942 -0.1132 -0.0250  0.0239
11154SOL    HW134903   5.204   2.631   2.870 -1.0944  0.2703  0.3112
11154SOL    HW234904   5.191   2.763   2.943 -1.0427 -0.5673  1.8840
11155SOL     OW34905   7.604   0.646   4.410 -0.1599  0.0850 -0.3034
11155SOL    HW134906   7.560   0.702   4.347  1.9998  1.5041 -0.6651
11155SOL    HW234907   7.678   0.608   4.362  0.0494 -0.8476  0.6972
11156SOL     OW34908   7.292   4.895   2.652  0.1405  0.3575 -0.1954
11156SOL    HW134909   7.294   4.990   2.642 -0.6050  0.4832  0.6824
11156SOL    HW234910   7.355   4.876   2.722  0.6560  0.1501 -0.7108
11157SOL     OW34911   2.744   7.598   4.758 -0.2417  0.2361 -0.3011
11157SOL    HW134912   2.833   7.563   4.758 -0.6380 -0.8545  1.1622
11157SOL    HW234913   2.732   7.633   4.669  1.0630 -1.0565 -1.0238
11158SOL     OW34914   7.478   0.965   7.159  0.0478  0.1159  0.2454
11158SOL    HW134915   7.522   0.895   7.207  0.9773  0.4701 -0.0780
11158SOL    HW234916   7.385   0.947   7.172  0.2661 -1.0991  0.2989
11159SOL     OW34917   4.365   6.633   2.137 -0.2835 -0.5081 -0.1783
11159SOL    HW134918   4.283   6.587   2.155 -0.4336  0.3666  1.5273
11159SOL    HW234919   4.344   6.691   2.064 -0.8584 -1.1132 -0.5043
11160SOL     OW34920   4.191   1.343   1.059  0.1450  0.2585  1.0098
11160SOL    HW134921   4.227   1.373   1.142  1.5780  0.2188  0.4228
11160SOL    HW234922   4.122   1.405   1.039  1.9226  2.2205  0.6555
11161SOL     OW34923   0.343   1.503   7.686  0.5837 -0.2416  0.4706
11161SOL    HW134924   0.345   1.543   7.773 -2.6360  0.9842  0.1104
11161SOL    HW234925   0.336   1.576   7.625 -0.5492 -1.1583 -0.5548
11162SOL     OW34926   7.895   0.314  10.941  0.1815 -0.2633  0.2721
11162SOL    HW134927   7.923   0.267  11.020 -0.1510 -0.6346  0.1732
11162SOL    HW234928   7.960   0.290  10.875 -1.2991 -2.6043 -0.4757
11163SOL     OW34929   1.361   5.165   6.951 -0.4272  0.1208  0.4197
11163SOL    HW134930   1.347   5.184   6.858 -0.7745 -1.9711 -0.0189
11163SOL    HW234931   1.455   5.151   6.959 -0.4444 -0.0511  0.3123
11164SOL     OW34932   0.067   7.732   0.197 -0.3610 -0.5624 -0.7481
11164SOL    HW134933   0.072   7.734   0.292  0.5884  0.5227 -0.7987
11164SOL    HW234934   0.010   7.657   0.177 -1.8443  0.1228  0.6970
11165SOL     OW34935   7.935   0.431  11.289 -0.1360  0.3171  0.0664
11165SOL    HW134936   7.901   0.491  11.223  0.5743  1.2404  0.5128
11165SOL    HW234937   7.901   0.465  11.372  0.0369 -0.0686  0.2966
11166SOL     OW34938   0.115   2.113   5.041 -0.2170  0.5420  0.3496
11166SOL    HW134939   0.050   2.070   5.098 -1.6747  0.2644 -1.4295
11166SOL    HW234940   0.118   2.203   5.073  0.5084 -0.0758  2.1222
11167SOL     OW34941   4.534   2.454  10.575 -0.0693 -0.2119 -0.3040
11167SOL    HW134942   4.466   2.449  10.643 -0.3157  2.8276 -0.1819
11167SOL    HW234943   4.488   2.490  10.499  0.9177 -0.3099 -0.9570
11168SOL     OW34944   2.127   5.600   2.810 -0.6782  0.0348 -0.1006
11168SOL    HW134945   2.117   5.693   2.786  0.6225  0.2114 -0.0342
11168SOL    HW234946   2.102   5.597   2.902  1.0293  0.6993  0.4248
11169SOL     OW34947   7.338   1.269   4.532 -0.1161 -0.3584 -0.2678
11169SOL    HW134948   7.419   1.281   4.581  1.1721  2.1407 -2.7095
11169SOL    HW234949   7.268   1.291   4.594  1.3557  1.6576  0.8017
11170SOL     OW34950   5.198   4.015   0.023 -0.4550  0.2039  0.3593
11170SOL    HW134951   5.212   4.010   0.117 -2.3699  0.9335  0.7087
11170SOL    HW234952   5.122   3.960   0.006  1.4444 -2.1398 -1.2067
11171SOL     OW34953   5.184   7.020  12.222  0.2050  0.0512  0.2004
11171SOL    HW134954   5.098   7.033  12.263  0.5617 -0.1874  1.0374
11171SOL    HW234955   5.227   6.955  12.276  0.1031 -1.4722 -1.4516
11172SOL     OW34956   0.325   5.730   2.832  0.4799 -0.2361  0.4674
11172SOL    HW134957   0.364   5.746   2.918 -0.2201  1.4517  0.5244
11172SOL    HW234958   0.341   5.812   2.784  0.2835 -0.9155 -0.7830
11173SOL     OW34959   2.535   2.067  11.622 -0.2207  0.0391  0.5896
11173SOL    HW134960   2.479   2.143  11.607 -0.2848 -0.2604 -0.7893
11173SOL    HW234961   2.484   2.012  11.682 -0.8685  0.3346  0.3255
11174SOL     OW34962   3.696   1.355  10.696  0.1278 -0.4249 -0.8408
11174SOL    HW134963   3.774   1.300  10.697  0.2523 -0.2499  0.3047
11174SOL    HW234964   3.694   1.397  10.782  0.8269  2.5085 -2.1347
11175SOL     OW34965   0.543   6.967  12.148 -0.3276  0.1103 -0.1230
11175SOL    HW134966   0.529   7.058  12.173 -0.1372  0.0414  0.2495
11175SOL    HW234967   0.525   6.917  12.228 -1.4831 -0.2712 -0.6061
11176SOL     OW34968   5.936   5.386   9.135 -0.1785  0.9112  0.3190
11176SOL    HW134969   5.862   5.383   9.074  0.5692  1.7870 -0.6725
11176SOL    HW234970   6.011   5.354   9.084 -0.1416 -1.6035  1.7963
11177SOL     OW34971   0.058   6.918  10.735 -0.1739 -0.3187 -0.0803
11177SOL    HW134972   0.039   6.931  10.828  2.1216  0.0617  0.4137
11177SOL    HW234973  -0.009   6.857  10.705 -1.3155  0.0015  1.6762
11178SOL     OW34974   3.486   3.390  12.210  0.0177  0.2304 -0.4210
11178SOL    HW134975   3.438   3.308  12.203 -0.4118  0.3309  1.0375
11178SOL    HW234976   3.576   3.364  12.228  0.1200  0.0848 -1.0811
11179SOL     OW34977   0.162   3.973   1.094  0.5452 -0.0431 -0.0462
11179SOL    HW134978   0.089   4.033   1.114 -0.8349 -1.6284 -0.1450
11179SOL    HW234979   0.201   4.008   1.014 -0.5165  0.4780 -0.3521
11180SOL     OW34980   6.026   1.698   7.557 -0.0442 -0.7856  0.0942
11180SOL    HW134981   6.016   1.719   7.464  0.7293 -0.9156 -0.0273
11180SOL    HW234982   6.115   1.664   7.564  0.7864  1.4878  1.3187
11181SOL     OW34983   6.649   7.337   3.733  0.3173 -0.5229 -0.6890
11181SOL    HW134984   6.595   7.385   3.796 -1.3827 -0.8162 -1.8535
11181SOL    HW234985   6.642   7.387   3.651  0.2458 -1.5955 -1.3658
11182SOL     OW34986   0.387   1.649  12.293 -0.7298  0.0803  0.5856
11182SOL    HW134987   0.372   1.730  12.244  0.5733 -1.0230 -1.8304
11182SOL    HW234988   0.300   1.620  12.320 -1.5576  0.6903 -1.2868
11183SOL     OW34989   0.461   6.071  10.262  0.1584  0.5545 -0.2246
11183SOL    HW134990   0.545   6.025  10.255 -0.9123 -1.6207  0.4764
11183SOL    HW234991   0.400   6.006  10.297 -2.4877  1.2390 -3.0865
11184SOL     OW34992   0.349   4.086   8.921 -0.2152  0.0292 -0.4579
11184SOL    HW134993   0.374   4.119   8.834  0.1734  2.4288  0.4843
11184SOL    HW234994   0.399   4.005   8.931  0.3685  0.1407 -2.1423
11185SOL     OW34995   3.109   0.786   9.917 -0.6091  0.4618 -0.5599
11185SOL    HW134996   3.060   0.766   9.997  1.5633 -1.5785  0.3900
11185SOL    HW234997   3.192   0.822   9.949 -0.3560  1.2299 -1.9931
11186SOL     OW34998   2.778   3.684   0.126  0.0115  0.5532  0.0322
11186SOL    HW134999   2.860   3.655   0.086 -0.3725  0.0724 -0.4248
11186SOL    HW235000   2.774   3.637   0.210 -0.3266 -0.3007 -0.4467
11187SOL     OW35001   6.029   6.226   1.744  0.2156 -0.2234 -0.1848
11187SOL    HW135002   6.120   6.240   1.773  0.3655  0.0852 -0.7798
11187SOL    HW235003   6.002   6.312   1.711 -0.1080 -0.4523 -0.5146
11188SOL     OW35004   2.533   5.134  10.174  0.6904 -0.3358  0.2914
11188SOL    HW135005   2.493   5.142  10.261 -0.8935 -1.1451 -0.3245
11188SOL    HW235006   2.461   5.105  10.117  2.0401 -1.2607 -1.0081
11189SOL     OW35007   3.778   7.572   9.619  0.3334 -0.3682  0.0298
11189SOL    HW135008   3.783   7.662   9.584 -1.5185 -0.9481 -1.9814
11189SOL    HW235009   3.868   7.539   9.612  0.4479  0.2449 -2.4803
11190SOL     OW35010   0.048   0.587   5.771 -0.0784 -0.5301 -0.0059
11190SOL    HW135011   0.005   0.673   5.774  2.0560  0.6551 -1.2191
11190SOL    HW235012   0.097   0.583   5.853  2.2535  0.8504 -1.2249
11191SOL     OW35013   2.871   5.456  11.004 -0.1150  0.0411  0.2267
11191SOL    HW135014   2.857   5.489  10.916  0.2964 -1.3461 -0.3807
11191SOL    HW235015   2.792   5.406  11.024 -0.1335  0.2068  0.5729
11192SOL     OW35016   3.329   7.560  10.047 -0.1870 -0.0144  0.3910
11192SOL    HW135017   3.321   7.654  10.063  0.4380  0.4217 -1.5726
11192SOL    HW235018   3.416   7.550  10.007 -1.1296 -1.0718 -1.5214
11193SOL     OW35019   7.200   0.893  10.216  0.2963 -0.0795  0.4810
11193SOL    HW135020   7.226   0.933  10.298 -0.6862 -2.6478  2.1604
11193SOL    HW235021   7.266   0.825  10.199 -0.7942 -1.1763  0.4751
11194SOL     OW35022   5.057   4.327   8.030 -0.0262 -1.0178 -0.0273
11194SOL    HW135023   4.995   4.257   8.051 -1.1056  0.3927  1.7725
11194SOL    HW235024   5.023   4.365   7.949 -1.3845 -0.4426  0.7845
11195SOL     OW35025   6.554   6.532   1.382  0.4313 -0.1335 -0.1980
11195SOL    HW135026   6.531   6.456   1.329  0.0642  1.8634 -3.1589
11195SOL    HW235027   6.646   6.548   1.363  0.6205 -0.0661  0.7355
11196SOL     OW35028   4.578   7.490  11.243 -0.2376  0.1530  0.1930
11196SOL    HW135029   4.585   7.585  11.242  0.3495  0.1117  0.0108
11196SOL    HW235030   4.531   7.468  11.162 -0.5643  0.3007  0.3426
11197SOL     OW35031   4.873   4.377   8.537 -0.0013 -0.2154 -0.0238
11197SOL    HW135032   4.849   4.302   8.484  0.9148 -1.4091  1.1868
11197SOL    HW235033   4.789   4.419   8.559 -0.6790 -1.8464  0.6231
11198SOL     OW35034   4.498   2.473   0.353 -0.2393  0.5871  0.3989
11198SOL    HW135035   4.548   2.416   0.295 -0.0964  1.5994 -0.4954
11198SOL    HW235036   4.408   2.440   0.347 -0.1609  0.4617 -0.1066
11199SOL     OW35037   3.448   6.513  11.675 -0.2190 -0.1213  0.1078
11199SOL    HW135038   3.363   6.502  11.631  0.1975  0.9021 -0.9938
11199SOL    HW235039   3.506   6.547  11.607  1.5161 -2.2308  0.4247
11200SOL     OW35040   1.346   2.034   2.036 -0.1192 -0.4469  0.1427
11200SOL    HW135041   1.433   2.018   2.072  0.1222 -0.0545 -0.2548
11200SOL    HW235042   1.358   2.105   1.973 -0.0701 -2.4851 -2.3757
11201SOL     OW35043   5.396   6.667  10.891 -0.0144  0.3474 -0.0444
11201SOL    HW135044   5.373   6.583  10.931 -1.1030  0.9771  0.7074
11201SOL    HW235045   5.445   6.713  10.959  1.0376  0.1293 -0.6399
11202SOL     OW35046   0.370   1.592  10.259 -0.5444  0.1840  0.3732
11202SOL    HW135047   0.293   1.602  10.315 -1.5726 -0.1269 -0.9320
11202SOL    HW235048   0.334   1.568  10.174  0.9812  0.6188 -0.4168
11203SOL     OW35049   7.796   1.800  12.058  0.4271  0.0722 -0.0197
11203SOL    HW135050   7.849   1.850  11.995  0.9894  2.2160  2.0183
11203SOL    HW235051   7.707   1.835  12.048  0.2205 -0.5719 -0.5358
11204SOL     OW35052   6.625   5.575   1.856 -0.1462  0.6045  0.2169
11204SOL    HW135053   6.665   5.528   1.783  1.2281  0.4236  1.0523
11204SOL    HW235054   6.542   5.529   1.871 -0.4267  0.6101 -1.1570
11205SOL     OW35055   2.244   5.829   8.425 -0.7986 -0.2610  0.4281
11205SOL    HW135056   2.311   5.800   8.487 -1.2962 -1.0967  0.5887
11205SOL    HW235057   2.161   5.804   8.466 -1.1339 -1.0938 -0.6880
11206SOL     OW35058   3.041   6.102   0.421  0.2305 -0.1057  0.3930
11206SOL    HW135059   3.122   6.110   0.472  0.9436 -0.4391 -0.6508
11206SOL    HW235060   3.060   6.149   0.340 -0.9978  0.6923  0.5452
11207SOL     OW35061   3.393   4.998   6.970  0.7523  0.3430 -0.4027
11207SOL    HW135062   3.308   4.998   7.013  0.4677  2.2542 -0.8652
11207SOL    HW235063   3.433   4.914   6.995 -0.8335 -0.1489  0.6312
11208SOL     OW35064   5.333   7.661   7.563  0.3454  0.2883  0.1571
11208SOL    HW135065   5.326   7.600   7.637 -0.6098  1.6449  1.2284
11208SOL    HW235066   5.320   7.748   7.602 -2.2431  0.9266 -1.8898
11209SOL     OW35067   2.172   0.762   4.125  0.1749 -0.3099 -0.1723
11209SOL    HW135068   2.225   0.821   4.072  1.2067  0.2931  1.4689
11209SOL    HW235069   2.226   0.741   4.201 -0.9412 -1.7895  0.2698
11210SOL     OW35070   1.295   6.850   2.753 -0.0396 -0.5226  0.5451
11210SOL    HW135071   1.384   6.879   2.737 -0.6687  0.9009 -0.6207
11210SOL    HW235072   1.299   6.805   2.837  1.8026 -0.6708  0.4072
11211SOL     OW35073   4.033   5.543   4.799  0.2027  0.4035 -0.4077
11211SOL    HW135074   3.938   5.535   4.806  0.3545 -0.8478  0.4840
11211SOL    HW235075   4.052   5.521   4.707 -0.3300  0.4172 -0.5241
11212SOL     OW35076   1.850   1.804   8.620 -0.2035  0.6619  0.0915
11212SOL    HW135077   1.911   1.819   8.692 -1.2166  1.8981  0.7122
11212SOL    HW235078   1.891   1.734   8.569  1.0832  0.5514  1.2225
11213SOL     OW35079   7.483   5.738  10.700  0.0647 -0.4309  0.0792
11213SOL    HW135080   7.511   5.742  10.609 -0.2623  1.0397  0.0222
11213SOL    HW235081   7.453   5.826  10.720 -0.1677 -0.8112  1.5250
11214SOL     OW35082   6.444   4.988   0.072  0.3716  0.2438 -0.0112
11214SOL    HW135083   6.373   5.024   0.126 -0.4900  0.1959 -1.0810
11214SOL    HW235084   6.411   4.904   0.041  1.0247  0.0796 -0.2840
11215SOL     OW35085   7.582   6.566   2.395  0.3615 -0.1357 -0.0257
11215SOL    HW135086   7.611   6.623   2.466 -0.6337  2.0653 -1.2748
11215SOL    HW235087   7.645   6.495   2.395  0.5516 -0.1169  2.8673
11216SOL     OW35088   1.490   2.083   2.877  0.2554 -0.4164 -0.4857
11216SOL    HW135089   1.490   2.016   2.945 -1.4484 -2.0479 -1.9848
11216SOL    HW235090   1.559   2.144   2.904 -0.1105 -1.1561  2.4830
11217SOL     OW35091   6.339   3.095   6.151 -0.0125  0.2300  0.3119
11217SOL    HW135092   6.363   3.188   6.157  0.2595  0.1063  1.3690
11217SOL    HW235093   6.355   3.072   6.059  2.2449  0.6264  0.5319
11218SOL     OW35094   2.608   1.085   8.048  0.5080  0.6255 -0.3641
11218SOL    HW135095   2.664   1.162   8.057  0.5719  0.5730 -0.3114
11218SOL    HW235096   2.654   1.029   7.985  2.0595 -0.7888  1.8814
11219SOL     OW35097   7.390   3.470   7.841  0.0516  0.2817 -0.0892
11219SOL    HW135098   7.351   3.529   7.906  1.1968 -0.1301  1.0109
11219SOL    HW235099   7.341   3.487   7.761 -0.0751  2.2741  0.3586
11220SOL     OW35100   0.277   1.057   5.585  0.2110 -0.5663  0.0891
11220SOL    HW135101   0.289   0.970   5.622  0.5256 -2.2934 -3.5914
11220SOL    HW235102   0.183   1.067   5.576  0.2158 -1.1077 -0.6309
11221SOL     OW35103   6.093   2.518   5.019  0.2456  0.1068  0.2884
11221SOL    HW135104   6.109   2.612   5.013 -2.1186  0.5516 -0.2505
11221SOL    HW235105   6.024   2.510   5.085 -0.9792 -1.0245 -1.0733
11222SOL     OW35106   4.791   6.140   6.030  0.2053 -1.0344 -0.2117
11222SOL    HW135107   4.816   6.184   5.950  1.3995 -0.4081  0.4801
11222SOL    HW235108   4.744   6.062   6.001  0.3060 -0.6324 -1.4992
11223SOL     OW35109   7.631   6.022   9.549  0.4184  0.0199  0.3080
11223SOL    HW135110   7.593   6.102   9.585  0.1495 -0.1720  0.4493
11223SOL    HW235111   7.658   5.971   9.625 -3.4353 -2.0652  0.5350
11224SOL     OW35112   5.188   4.184   1.787 -0.5041  0.2944  0.4011
11224SOL    HW135113   5.181   4.091   1.770  1.6827  0.3232 -1.0785
11224SOL    HW235114   5.205   4.190   1.881  0.1654 -0.8822  0.3772
11225SOL     OW35115   7.604   6.651  12.390 -0.4246 -0.5041  0.2027
11225SOL    HW135116   7.645   6.584  12.336  1.5135  0.6847  0.0702
11225SOL    HW235117   7.654   6.650  12.471  0.0518  1.1301 -0.0241
11226SOL     OW35118   2.532   5.135   6.941  0.1427  0.0068 -0.6829
11226SOL    HW135119   2.520   5.226   6.970 -0.5191  0.1838 -1.4679
11226SOL    HW235120   2.509   5.137   6.848 -0.7161 -1.1397 -0.5080
11227SOL     OW35121   5.094   2.901   4.423  0.4027 -0.1631 -0.3071
11227SOL    HW135122   5.088   2.807   4.441 -1.1336  0.1490  1.0843
11227SOL    HW235123   5.003   2.930   4.420  0.8681  1.4087 -0.0014
11228SOL     OW35124   5.725   7.174   5.091  0.3168  0.1500  0.4231
11228SOL    HW135125   5.719   7.089   5.135 -0.8519  0.1776  0.3470
11228SOL    HW235126   5.645   7.220   5.116  0.9576  1.2634  0.5027
11229SOL     OW35127   5.058   7.513   8.815  0.1952  0.8042 -0.0680
11229SOL    HW135128   4.968   7.538   8.796  0.9173  1.5856 -3.0066
11229SOL    HW235129   5.078   7.445   8.750  1.7781  0.7873  0.3988
11230SOL     OW35130   3.790   1.755  12.201  0.2486  0.5980  0.3456
11230SOL    HW135131   3.763   1.761  12.109  2.1836  0.2718 -0.2946
11230SOL    HW235132   3.785   1.845  12.233  1.3833  1.0578 -0.6748
11231SOL     OW35133   2.624   0.459   8.574 -0.2770  0.3349  0.5046
11231SOL    HW135134   2.542   0.427   8.537 -0.1583 -0.3600  0.8282
11231SOL    HW235135   2.601   0.488   8.662 -0.1390 -0.0711  0.6780
11232SOL     OW35136   6.032   6.820   8.842 -0.2686 -0.0547  0.2488
11232SOL    HW135137   5.957   6.851   8.892 -0.0888  0.2381  0.3373
11232SOL    HW235138   6.057   6.739   8.885  0.1459  0.4067  0.8976
11233SOL     OW35139   4.972   3.268   1.442  0.1327  0.1290  0.4777
11233SOL    HW135140   5.014   3.354   1.453 -0.4149  0.4291  0.2164
11233SOL    HW235141   4.880   3.287   1.429  0.1907 -0.4277 -0.8862
11234SOL     OW35142   5.158   5.900  11.003 -0.0310  0.0688  0.0952
11234SOL    HW135143   5.140   5.872  11.093 -0.0486  0.9637  0.3773
11234SOL    HW235144   5.199   5.823  10.962 -0.8484 -0.6479  0.5924
11235SOL     OW35145   7.587   5.507   5.123 -0.8585 -0.3190  0.3685
11235SOL    HW135146   7.631   5.423   5.132 -1.4845 -0.5552  1.4934
11235SOL    HW235147   7.655   5.568   5.095 -0.2233 -1.0384  0.3424
11236SOL     OW35148   4.923   2.265   1.842 -0.3336 -0.1368 -0.0257
11236SOL    HW135149   4.926   2.237   1.933 -1.9555  1.5090  0.5923
11236SOL    HW235150   4.844   2.319   1.836  0.1477  0.4151 -2.2283
11237SOL     OW35151   3.352   7.724   0.390  0.7186  0.5780  0.1861
11237SOL    HW135152   3.423   7.686   0.339  0.9393 -1.4254  1.8867
11237SOL    HW235153   3.305   7.779   0.327  2.7239  0.5971 -1.3976
11238SOL     OW35154   6.117   6.316   1.471 -0.0056 -0.3851 -0.0053
11238SOL    HW135155   6.109   6.391   1.529  0.6628  2.0226 -2.8031
11238SOL    HW235156   6.033   6.313   1.424  0.1011 -1.2136 -0.1598
11239SOL     OW35157   0.808   5.326   6.726  0.0447 -0.0305  0.9040
11239SOL    HW135158   0.901   5.330   6.747  0.6937 -1.0361 -1.4689
11239SOL    HW235159   0.770   5.271   6.795  1.0636  0.8716  2.2264
11240SOL     OW35160   5.280   0.833   5.518 -0.0377  0.2887 -0.1689
11240SOL    HW135161   5.316   0.849   5.431  0.7432  1.7209  0.3833
11240SOL    HW235162   5.267   0.738   5.521  1.7154 -0.0370 -1.1677
11241SOL     OW35163   1.065   4.114   3.443 -0.0743  0.4992  0.4656
11241SOL    HW135164   0.983   4.100   3.395 -0.9537  1.5173  1.6242
11241SOL    HW235165   1.086   4.028   3.480 -0.3079  0.1019 -0.3070
11242SOL     OW35166   2.435   6.978  10.075 -0.0857  0.3996 -0.2330
11242SOL    HW135167   2.490   6.989  10.152  0.3804  1.1155 -0.6574
11242SOL    HW235168   2.398   6.890  10.084  1.4246 -0.2572 -0.1176
11243SOL     OW35169   1.024   5.138  11.291 -0.2618  0.1964  0.2039
11243SOL    HW135170   1.007   5.230  11.311 -0.3221  0.2430 -0.0669
11243SOL    HW235171   0.975   5.120  11.211  1.4909  0.5311 -1.0075
11244SOL     OW35172   0.893   5.830   1.447 -0.5125  0.1284 -0.0434
11244SOL    HW135173   0.894   5.799   1.357  0.2420  0.9638 -0.3311
11244SOL    HW235174   0.947   5.909   1.446  2.7428 -1.8581  1.8585
11245SOL     OW35175   3.723   2.188  12.004  0.1716 -0.5689 -0.0654
11245SOL    HW135176   3.722   2.161  12.096 -1.3401  3.5851  1.3804
11245SOL    HW235177   3.814   2.212  11.986  0.2356 -0.0909  0.8468
11246SOL     OW35178   2.072   1.240  12.116  0.1888 -0.5264  0.3369
11246SOL    HW135179   2.141   1.191  12.162  0.0218 -0.3857  0.7363
11246SOL    HW235180   2.022   1.173  12.070  2.1996 -0.4608 -2.2024
11247SOL     OW35181   2.180   4.282   8.385  0.2160 -0.6691  0.0884
11247SOL    HW135182   2.222   4.205   8.346 -0.4993 -1.6881  1.2427
11247SOL    HW235183   2.179   4.264   8.479 -1.9156 -0.2695  0.1880
11248SOL     OW35184   2.092   0.229   1.767  0.2950 -1.0228 -0.2779
11248SOL    HW135185   2.007   0.257   1.801  0.8993 -1.0263  1.3048
11248SOL    HW235186   2.117   0.298   1.705 -1.0349 -1.2458 -1.1084
11249SOL     OW35187   7.017   1.984   1.633  0.1434  0.4966  0.2686
11249SOL    HW135188   7.016   1.889   1.630  0.0618  0.5078 -1.1984
11249SOL    HW235189   7.005   2.006   1.725  1.8779 -0.9080  0.8855
11250SOL     OW35190   4.232   5.009   1.502 -0.3174 -0.2287 -0.1105
11250SOL    HW135191   4.238   4.929   1.449  0.6382  1.5543 -2.9395
11250SOL    HW235192   4.316   5.015   1.546  0.5000  0.2493 -1.6447
11251SOL     OW35193   3.612   1.076  11.272 -0.5574 -0.0524 -0.3354
11251SOL    HW135194   3.666   1.030  11.336 -1.0966  0.8669  0.8176
11251SOL    HW235195   3.674   1.108  11.206  0.1074 -0.3030  0.1577
11252SOL     OW35196   0.776   1.920   7.995 -0.0220 -0.5801  0.2220
11252SOL    HW135197   0.833   1.968   7.935 -0.0128 -0.5195  0.2793
11252SOL    HW235198   0.836   1.878   8.056  0.0238 -1.4654 -0.4180
11253SOL     OW35199   1.456   2.730   2.487  0.4290  0.1127  0.1190
11253SOL    HW135200   1.419   2.685   2.562  1.5476  0.6098  0.9976
11253SOL    HW235201   1.417   2.817   2.489 -1.1251 -0.5111 -1.1168
11254SOL     OW35202   5.326   1.438   2.489  0.2109  0.5485  0.6087
11254SOL    HW135203   5.377   1.499   2.435 -0.5478 -0.3089 -1.1462
11254SOL    HW235204   5.388   1.367   2.509  0.2070  0.3146 -0.1424
11255SOL     OW35205   1.247   5.323   6.153 -0.0332  0.0108 -0.5413
11255SOL    HW135206   1.249   5.418   6.166  0.6333 -0.1516  0.6484
11255SOL    HW235207   1.323   5.305   6.099  0.8472 -0.0290  0.6773
11256SOL     OW35208   0.961   3.116   6.483 -0.3384  0.2545  0.4292
11256SOL    HW135209   0.972   3.194   6.538  0.6477  0.1540  0.3906
11256SOL    HW235210   1.047   3.103   6.442  0.1695 -2.0437  2.0152
11257SOL     OW35211   3.065   7.825   6.547  0.0373  0.3044 -0.3740
11257SOL    HW135212   3.079   7.915   6.574 -0.6785  0.4224 -0.3806
11257SOL    HW235213   2.993   7.794   6.602  1.3287 -0.7946  0.8028
11258SOL     OW35214   4.999   1.848  10.734 -0.2484 -0.1191  0.0401
11258SOL    HW135215   4.967   1.794  10.806 -0.7149 -0.2623 -0.2722
11258SOL    HW235216   5.039   1.786  10.673  2.4055  0.2026  1.2926
11259SOL     OW35217   7.708   3.845   1.309  0.4193  0.1410 -0.4502
11259SOL    HW135218   7.794   3.883   1.325 -0.2120  0.6558  2.0039
11259SOL    HW235219   7.703   3.771   1.369 -1.1500  0.5967  0.0132
11260SOL     OW35220   3.367   1.067  10.733 -0.6870 -0.4511  0.0176
11260SOL    HW135221   3.293   1.031  10.782  0.0831  0.0212  1.5967
11260SOL    HW235222   3.418   1.114  10.799 -0.1796  1.1551 -1.4529
11261SOL     OW35223   2.427   3.832   5.291 -0.1352 -0.2244 -0.2090
11261SOL    HW135224   2.360   3.765   5.277  0.6429 -0.7872 -1.3841
11261SOL    HW235225   2.510   3.784   5.284  0.4279  0.8154 -0.8432
11262SOL     OW35226   6.013   7.390   5.271  0.7877 -0.0939  0.4079
11262SOL    HW135227   5.974   7.459   5.325 -0.6295 -0.5128 -0.0297
11262SOL    HW235228   6.107   7.408   5.274  0.5005  1.6064  0.6536
11263SOL     OW35229   4.616   2.591  11.922 -0.3174 -0.4811 -0.3083
11263SOL    HW135230   4.671   2.657  11.963 -0.8628  0.3067 -0.8286
11263SOL    HW235231   4.568   2.552  11.995 -0.6838  0.3453 -0.0992
11264SOL     OW35232   7.144   7.186   7.275  0.2032  0.1048 -0.1967
11264SOL    HW135233   7.127   7.176   7.182 -0.1553 -0.8271 -0.0440
11264SOL    HW235234   7.058   7.188   7.316  0.3597  0.0807  0.1451
11265SOL     OW35235   0.431   7.009   9.834  0.4628 -0.3335  0.4913
11265SOL    HW135236   0.395   6.926   9.804  0.5081 -0.0836 -0.2750
11265SOL    HW235237   0.381   7.030   9.913 -2.7465  1.0833 -1.6690
11266SOL     OW35238   1.122   4.040   5.342 -0.0113  0.0831 -0.2127
11266SOL    HW135239   1.192   3.991   5.300  3.3441  0.4529  4.2209
11266SOL    HW235240   1.142   4.132   5.322 -1.2548  0.0922 -1.5603
11267SOL     OW35241   0.457   5.613  10.734 -0.1777  0.1063 -0.4816
11267SOL    HW135242   0.398   5.601  10.660 -0.7645  0.0579 -0.0118
11267SOL    HW235243   0.419   5.559  10.803  0.0878  0.5420  0.0101
11268SOL     OW35244   1.621   0.018  10.801 -0.0704 -0.3536 -0.6011
11268SOL    HW135245   1.598   0.048  10.889 -0.3321 -1.0222 -0.4363
11268SOL    HW235246   1.636  -0.076  10.810 -0.5334 -0.5130 -1.3545
11269SOL     OW35247   1.135   0.802   7.909  0.3694  0.3236  0.3216
11269SOL    HW135248   1.065   0.747   7.873 -0.3528  0.9149  0.7936
11269SOL    HW235249   1.119   0.889   7.871  2.8236 -0.2138 -2.2170
11270SOL     OW35250   6.347   5.338   3.375  0.6978  0.0124 -0.0801
11270SOL    HW135251   6.384   5.278   3.310  1.0096 -1.1330  1.1039
11270SOL    HW235252   6.394   5.317   3.456  0.5830  1.6580  0.4497
11271SOL     OW35253   6.656   0.771   0.634  0.0006  0.1727  0.3114
11271SOL    HW135254   6.590   0.726   0.581  1.1295 -2.0285  0.6329
11271SOL    HW235255   6.609   0.845   0.672 -1.6136  0.1143 -1.3842
11272SOL     OW35256   7.871   5.475  10.113  0.7672  0.0720  0.2516
11272SOL    HW135257   7.882   5.491  10.207  1.2331  3.2322 -0.2284
11272SOL    HW235258   7.942   5.524  10.072  0.7088 -1.4294 -1.7735
11273SOL     OW35259   3.896   5.983   2.544 -0.1229  0.5255  0.3266
11273SOL    HW135260   3.827   5.955   2.484  0.5492  0.6479 -0.5115
11273SOL    HW235261   3.878   5.934   2.624 -0.6427 -0.1378 -0.1810
11274SOL     OW35262   1.862   3.466  10.448 -0.3599 -0.0423 -0.5206
11274SOL    HW135263   1.887   3.384  10.405 -0.9132 -1.5206  1.8268
11274SOL    HW235264   1.936   3.524  10.433  0.9996 -1.6765 -0.4744
11275SOL     OW35265   1.534   2.374   2.212 -0.3141 -0.0931  0.1144
11275SOL    HW135266   1.585   2.295   2.196  1.5518  0.6887  1.8676
11275SOL    HW235267   1.510   2.405   2.124  1.5549 -0.9362 -0.7469
11276SOL     OW35268   6.580   7.017   6.243 -0.4424 -0.0618  0.4746
11276SOL    HW135269   6.648   6.986   6.183 -0.2849 -0.1697  0.7066
11276SOL    HW235270   6.555   7.103   6.208 -0.5527 -0.2488  0.0947
11277SOL     OW35271   3.236   0.999   8.333  0.5485  0.1401 -0.1071
11277SOL    HW135272   3.144   0.979   8.348  0.3198  0.6074 -0.8271
11277SOL    HW235273   3.260   0.947   8.257 -0.5617  3.6738 -3.2124
11278SOL     OW35274   1.720   6.521  11.050  0.3817  0.0050  0.3704
11278SOL    HW135275   1.646   6.512  11.110 -0.4201 -0.1826 -0.6297
11278SOL    HW235276   1.715   6.443  10.994  1.0147  0.2692 -0.0627
11279SOL     OW35277   6.629   0.743   4.508  0.3246 -0.4221  0.4138
11279SOL    HW135278   6.720   0.768   4.524 -0.3152  1.3083  1.6450
11279SOL    HW235279   6.585   0.825   4.487 -1.4668 -0.7503  2.5310
11280SOL     OW35280   7.167   4.635   8.835  0.1894  0.3048 -0.2955
11280SOL    HW135281   7.073   4.631   8.853  0.1940  1.6377  0.1336
11280SOL    HW235282   7.208   4.641   8.921  0.8056 -1.6995 -0.3847
11281SOL     OW35283   2.833   1.239   1.058  0.4263 -0.3964 -0.2930
11281SOL    HW135284   2.825   1.147   1.034  0.2061 -0.5279  0.2841
11281SOL    HW235285   2.753   1.259   1.106  0.8342 -0.1191  0.2796
11282SOL     OW35286   7.931   4.419  12.280 -0.1242  0.3104 -0.5073
11282SOL    HW135287   7.945   4.324  12.282  0.8612  0.4474 -0.2439
11282SOL    HW235288   7.872   4.433  12.206 -1.1102 -0.6003  0.0817
11283SOL     OW35289   5.527   5.270   5.377  0.2163  0.3716 -0.6593
11283SOL    HW135290   5.488   5.328   5.313 -1.0726 -0.6171 -0.8198
11283SOL    HW235291   5.620   5.264   5.352  0.0164  1.0508 -1.6010
11284SOL     OW35292   2.590   6.460   4.270 -0.0933 -0.4739  0.1366
11284SOL    HW135293   2.670   6.512   4.260 -0.2855 -0.1702  0.1691
11284SOL    HW235294   2.601   6.415   4.354 -0.5932  0.6929  0.8529
11285SOL     OW35295   2.552   3.126   1.126  0.2349 -0.0389 -0.0539
11285SOL    HW135296   2.480   3.186   1.106 -0.4702 -0.9046 -0.1775
11285SOL    HW235297   2.534   3.049   1.072  0.9964 -0.4531  0.2790
11286SOL     OW35298   5.767   3.440  10.349  0.4562 -0.3119 -0.7827
11286SOL    HW135299   5.802   3.383  10.280  0.4889 -1.1372 -0.0899
11286SOL    HW235300   5.697   3.490  10.305 -0.0976 -1.4328 -1.2179
11287SOL     OW35301   1.084   3.098   1.613 -0.4617 -0.4509 -0.3577
11287SOL    HW135302   1.096   3.146   1.695  0.6855 -0.0916 -0.7206
11287SOL    HW235303   1.153   3.131   1.556  1.1348 -3.3359 -0.2478
11288SOL     OW35304   3.997   1.389   1.826  0.1479  0.3625  0.5437
11288SOL    HW135305   4.074   1.434   1.862 -1.0663  1.2108  2.2380
11288SOL    HW235306   3.965   1.446   1.757  0.6424  0.3453  0.2999
11289SOL     OW35307   2.935   3.775   0.745 -0.8207  0.0271 -0.0776
11289SOL    HW135308   3.029   3.766   0.735 -0.8335 -0.0151 -0.1632
11289SOL    HW235309   2.913   3.723   0.822 -0.9436 -0.9709 -0.7623
11290SOL     OW35310   0.629   4.525  12.399 -0.2744 -0.1368  0.0211
11290SOL    HW135311   0.582   4.603  12.370 -0.0141 -0.5138 -1.4883
11290SOL    HW235312   0.601   4.456  12.339 -1.9089 -1.7359  2.3819
11291SOL     OW35313   6.348   5.114   1.194 -0.0515 -0.2764 -0.2956
11291SOL    HW135314   6.337   5.178   1.264  0.0682 -0.6320  0.0527
11291SOL    HW235315   6.296   5.148   1.122 -0.2159  0.0690 -0.0169
11292SOL     OW35316   2.735   1.937   2.236 -0.0190  0.2839 -0.0250
11292SOL    HW135317   2.703   1.977   2.317 -0.0255 -1.5068  0.9147
11292SOL    HW235318   2.661   1.943   2.176 -0.2116  1.1309  0.2808
11293SOL     OW35319   5.028   7.224   9.312  0.4548  0.3976 -0.1393
11293SOL    HW135320   5.032   7.255   9.221 -0.7129 -1.2682 -0.8288
11293SOL    HW235321   4.942   7.251   9.343 -0.4158 -1.6252 -0.6173
11294SOL     OW35322   1.246   2.358   8.491 -0.6649  0.5318  0.5265
11294SOL    HW135323   1.197   2.426   8.445 -0.4159  0.0067 -0.5353
11294SOL    HW235324   1.323   2.342   8.436 -1.0930 -1.1456  0.3715
11295SOL     OW35325   7.233   7.308   4.699 -0.0775 -0.0201  0.3083
11295SOL    HW135326   7.183   7.307   4.780  0.8012  0.0497  0.8671
11295SOL    HW235327   7.320   7.339   4.724  0.9364 -2.2067 -0.2165
11296SOL     OW35328   0.404   3.697   3.878  0.2317 -0.1847 -0.4679
11296SOL    HW135329   0.427   3.696   3.971 -0.0915 -1.0994 -0.3791
11296SOL    HW235330   0.459   3.765   3.840  0.2530  0.3060  0.4216
11297SOL     OW35331   2.111   4.749   5.010  0.4014  0.2284  0.1681
11297SOL    HW135332   2.086   4.691   4.938 -0.3139  1.3369 -0.5037
11297SOL    HW235333   2.127   4.834   4.968  0.5291  0.7528  1.2483
11298SOL     OW35334   7.333   5.473   2.242  0.0946 -0.3356 -0.2272
11298SOL    HW135335   7.280   5.457   2.164  1.7322 -1.1007 -1.2475
11298SOL    HW235336   7.380   5.391   2.257  1.2446  0.4015  0.4068
11299SOL     OW35337   7.341   1.551   6.146 -0.1752 -0.3626  0.5723
11299SOL    HW135338   7.359   1.623   6.085 -0.1757 -1.0016 -0.1900
11299SOL    HW235339   7.343   1.592   6.233  0.7180  0.3789  0.2097
11300SOL     OW35340   7.448   4.203  10.646  0.1420  0.5442 -0.1423
11300SOL    HW135341   7.509   4.133  10.669  1.9444  1.9127 -0.5545
11300SOL    HW235342   7.408   4.174  10.565 -0.4837 -0.8007  0.6167
11301SOL     OW35343   7.884   6.765   2.299 -0.2475 -0.3338 -0.2930
11301SOL    HW135344   7.961   6.818   2.317 -0.7463  0.6844 -1.0535
11301SOL    HW235345   7.918   6.678   2.279  0.6200 -0.1564  0.3670
11302SOL     OW35346   0.396   5.372   0.959  0.5291  0.0694 -0.1218
11302SOL    HW135347   0.399   5.407   0.870 -0.1144  0.3597 -0.0408
11302SOL    HW235348   0.445   5.290   0.955  1.0123  0.3752 -0.6035
11303SOL     OW35349   2.460   5.424   0.769 -0.1281 -0.0693 -0.3105
11303SOL    HW135350   2.506   5.488   0.824 -2.3078  1.3706 -0.0126
11303SOL    HW235351   2.527   5.388   0.712  1.7133  0.4053  1.4484
11304SOL     OW35352   5.996   2.767   1.207  0.6617 -0.2454 -0.7258
11304SOL    HW135353   5.904   2.792   1.217  0.6983  0.7733 -2.4644
11304SOL    HW235354   6.042   2.850   1.193  2.0073 -0.6501  0.8661
11305SOL     OW35355   5.572   6.098   3.664 -0.2903 -0.1600  0.0194
11305SOL    HW135356   5.506   6.134   3.605 -0.1597 -1.6932 -1.1011
11305SOL    HW235357   5.522   6.070   3.741 -0.3949  2.3202  0.9319
11306SOL     OW35358   5.120   2.854   6.692  0.4858  0.7793 -0.7800
11306SOL    HW135359   5.193   2.817   6.742  0.8265  1.8080 -0.4901
11306SOL    HW235360   5.106   2.791   6.621  1.4036  0.3654 -0.6206
11307SOL     OW35361   6.857   2.243   6.656  0.2321 -0.4748 -0.0614
11307SOL    HW135362   6.831   2.224   6.566  0.4527 -0.7533 -0.0699
11307SOL    HW235363   6.927   2.307   6.648  0.5979 -0.8776 -0.1151
11308SOL     OW35364   0.466   2.677   9.701 -0.1453 -0.5566  0.5422
11308SOL    HW135365   0.399   2.621   9.663  0.4346 -1.1312  0.3585
11308SOL    HW235366   0.538   2.674   9.638 -0.5084  1.2639 -0.0269
11309SOL     OW35367   1.866   3.459   6.268  0.3226  0.1909 -0.6833
11309SOL    HW135368   1.876   3.508   6.349  0.9137  0.2555 -0.7919
11309SOL    HW235369   1.779   3.483   6.235 -1.0978 -1.8347  1.2555
11310SOL     OW35370   3.242   1.802   0.888  0.4144  0.2790 -0.0670
11310SOL    HW135371   3.320   1.780   0.837 -0.5875 -1.0333 -1.0997
11310SOL    HW235372   3.200   1.872   0.839  0.6078  0.5449  0.1464
11311SOL     OW35373   5.692   3.309   7.870  0.3268  0.2454  0.0344
11311SOL    HW135374   5.713   3.382   7.811 -0.0891  1.8086  1.7274
11311SOL    HW235375   5.774   3.290   7.914  0.3074  0.0577 -0.0106
11312SOL     OW35376   1.930   5.099   6.388 -0.3635 -0.0869  0.2992
11312SOL    HW135377   1.883   5.118   6.469 -0.4235  0.6290  0.1070
11312SOL    HW235378   1.861   5.092   6.322 -0.1945  1.6443 -0.1146
11313SOL     OW35379   4.845   7.937  12.193 -0.2784 -0.3518 -0.5246
11313SOL    HW135380   4.844   7.991  12.272  0.5079 -2.6037  1.1367
11313SOL    HW235381   4.754   7.934  12.164 -0.4589  1.1178 -0.1481
11314SOL     OW35382   0.937   4.384   8.118  0.5996 -0.5567 -0.0559
11314SOL    HW135383   0.939   4.478   8.132  0.0324 -0.6410  0.6629
11314SOL    HW235384   0.993   4.348   8.187  1.3764 -0.7094 -0.7523
11315SOL     OW35385   6.580   5.637   5.240 -0.6841  0.6077  0.3369
11315SOL    HW135386   6.628   5.563   5.277  0.9499  0.9779 -0.8891
11315SOL    HW235387   6.530   5.673   5.313 -1.0316 -1.3085  1.0950
11316SOL     OW35388   6.392   3.616   3.428 -0.1494 -0.2563  0.0589
11316SOL    HW135389   6.419   3.614   3.337 -0.6920  0.5349 -0.1303
11316SOL    HW235390   6.364   3.707   3.443 -0.8876 -0.5848  0.7652
11317SOL     OW35391   4.602   7.224   4.695  0.2786  0.4262  0.0022
11317SOL    HW135392   4.555   7.308   4.690 -0.8880 -0.2461 -3.0181
11317SOL    HW235393   4.538   7.163   4.732 -1.0480 -0.2121 -2.9635
11318SOL     OW35394   3.545   0.467  11.064 -0.1743 -0.3255 -0.5033
11318SOL    HW135395   3.510   0.513  10.988  0.9086  0.3287 -0.6406
11318SOL    HW235396   3.473   0.466  11.127 -0.4344  1.0192 -0.7425
11319SOL     OW35397   5.469   3.538   9.950  0.4259 -0.2213  0.2500
11319SOL    HW135398   5.487   3.600   9.879  1.2839 -1.0217 -0.2569
11319SOL    HW235399   5.393   3.489   9.920  2.2126 -2.2029 -1.2864
11320SOL     OW35400   0.076   5.596   1.638  0.2907 -0.1720 -0.1389
11320SOL    HW135401   0.031   5.581   1.555 -1.2215 -0.3761  0.6781
11320SOL    HW235402   0.070   5.690   1.653 -1.7413 -0.3948  0.9126
11321SOL     OW35403   4.402   4.818   7.741 -0.1909 -0.5772 -0.5128
11321SOL    HW135404   4.380   4.824   7.834 -1.3369 -1.9762 -0.6494
11321SOL    HW235405   4.462   4.744   7.735  1.2467  0.5792 -0.6929
11322SOL     OW35406   1.005   5.912   1.190 -0.0350 -0.3185  0.1835
11322SOL    HW135407   0.997   5.938   1.098  0.9598  1.1613  0.4862
11322SOL    HW235408   1.033   5.991   1.235  1.4034 -1.4855  1.4608
11323SOL     OW35409   0.688   3.909   1.118  0.6911  0.0853 -0.3102
11323SOL    HW135410   0.608   3.946   1.154  1.0161  0.1379  0.3862
11323SOL    HW235411   0.659   3.830   1.071  0.2691 -0.0733  0.2063
11324SOL     OW35412   5.544   7.029   4.875  0.3472  0.0251  0.2364
11324SOL    HW135413   5.477   7.007   4.940  1.1320 -0.3866  0.9242
11324SOL    HW235414   5.520   7.116   4.845 -0.9853 -0.4549 -0.1699
11325SOL     OW35415   5.965   6.080   0.727  0.2365  0.2816 -0.1581
11325SOL    HW135416   5.948   6.059   0.635  1.8572 -0.5973 -0.2821
11325SOL    HW235417   6.011   6.163   0.725  0.2434  0.2783 -0.1325
11326SOL     OW35418   5.021   7.222  10.536  0.3263 -0.5676 -0.3186
11326SOL    HW135419   5.074   7.296  10.505  1.1481 -1.5835 -1.4224
11326SOL    HW235420   4.932   7.257  10.540  0.8180  0.7009 -0.0733
11327SOL     OW35421   3.045   0.657   3.999  0.0728  0.2058 -0.0422
11327SOL    HW135422   3.081   0.606   3.927  0.4163  0.3438  0.0244
11327SOL    HW235423   3.020   0.592   4.065 -1.0064  0.0270 -0.6097
11328SOL     OW35424   3.103   4.523   0.907  0.7527 -0.7522  0.0192
11328SOL    HW135425   3.041   4.559   0.845  0.7575  1.6616  1.3062
11328SOL    HW235426   3.168   4.477   0.852 -0.9387 -1.4903 -1.4660
11329SOL     OW35427   7.316   5.073   0.886  0.0858  0.3201  0.4072
11329SOL    HW135428   7.349   5.127   0.958 -1.1151  0.3305  0.9677
11329SOL    HW235429   7.282   4.994   0.928 -1.0926  0.5481 -0.0870
11330SOL     OW35430   1.676   3.456   2.804  0.0271  0.0263  0.4752
11330SOL    HW135431   1.757   3.508   2.805  0.0355  0.0101  1.0617
11330SOL    HW235432   1.607   3.518   2.824 -0.0765 -0.0133  0.2436
11331SOL     OW35433   3.227   1.598  10.997 -0.7763 -0.3184  0.5293
11331SOL    HW135434   3.195   1.617  11.085 -0.3450 -0.2160  0.6671
11331SOL    HW235435   3.318   1.628  10.997 -1.2425  1.2397 -0.4482
11332SOL     OW35436   5.460   3.619   9.368 -0.1540  0.5908 -0.2116
11332SOL    HW135437   5.498   3.613   9.281  1.1243 -1.6632  0.4067
11332SOL    HW235438   5.530   3.652   9.423  0.6571 -2.2943  0.6867
11333SOL     OW35439   4.648   2.311   7.414 -0.3396  0.6656  0.2848
11333SOL    HW135440   4.563   2.297   7.457 -0.4471  0.4299  0.0019
11333SOL    HW235441   4.703   2.241   7.447  0.4132  2.0502  2.1336
11334SOL     OW35442   7.674   2.799  10.843 -0.4998 -0.2994  0.4713
11334SOL    HW135443   7.639   2.765  10.926  0.4044 -0.0469  0.9745
11334SOL    HW235444   7.755   2.844  10.868 -0.7361  0.6771 -0.4149
11335SOL     OW35445   3.564   6.054   8.258 -0.3414  0.3015 -0.2914
11335SOL    HW135446   3.632   6.018   8.201 -0.0784  0.3754 -0.0247
11335SOL    HW235447   3.482   6.029   8.216 -0.1802 -1.1337  0.1950
11336SOL     OW35448   0.024   1.468   3.399 -0.3525 -0.2144 -0.4529
11336SOL    HW135449   0.034   1.430   3.312 -0.0502  0.7636 -0.8644
11336SOL    HW235450  -0.071   1.475   3.411 -0.3961 -0.3614 -0.6990
11337SOL     OW35451   7.689   5.830   5.389  0.5861 -0.2634 -0.6133
11337SOL    HW135452   7.660   5.891   5.456  1.2292 -1.4821  0.8578
11337SOL    HW235453   7.644   5.748   5.409  0.5925 -0.5967 -1.8422
11338SOL     OW35454   5.935   2.856   4.346 -0.2631 -0.0492 -0.6254
11338SOL    HW135455   5.858   2.857   4.289 -1.1771  0.1599  0.5709
11338SOL    HW235456   5.904   2.893   4.429  0.9592 -0.5543  0.0885
11339SOL     OW35457   2.358   7.551   9.119  0.0357 -0.0368  0.1203
11339SOL    HW135458   2.361   7.456   9.128 -2.1987 -0.1775  0.0358
11339SOL    HW235459   2.410   7.584   9.193 -0.9522 -1.3250  1.4570
11340SOL     OW35460   5.738   1.911   3.368  0.6725  0.3235  0.2528
11340SOL    HW135461   5.810   1.911   3.431  0.7352  0.6425  0.1819
11340SOL    HW235462   5.702   2.000   3.372  0.8174  0.4124 -0.3212
11341SOL     OW35463   0.514   5.103   0.072  0.4012  1.1579  0.0385
11341SOL    HW135464   0.439   5.157   0.047 -0.2052 -0.8621 -3.0132
11341SOL    HW235465   0.479   5.043   0.138 -0.0509  1.6180  0.2289
11342SOL     OW35466   7.174   6.017   5.323 -0.2862  0.9472  0.4543
11342SOL    HW135467   7.213   5.935   5.352 -0.1851  0.4773 -0.9403
11342SOL    HW235468   7.233   6.085   5.356  0.1678  0.4031  0.7734
11343SOL     OW35469   6.813   7.864   5.317  0.0583  0.1229 -0.8547
11343SOL    HW135470   6.901   7.882   5.286  0.5096 -0.3898  0.0833
11343SOL    HW235471   6.779   7.798   5.257  0.4765 -0.0021 -0.9540
11344SOL     OW35472   5.935   2.227   6.033  0.0914  0.1346  0.0912
11344SOL    HW135473   5.963   2.147   6.077  1.2484  0.2800 -0.3580
11344SOL    HW235474   5.856   2.202   5.985  0.3016 -0.6659  0.1550
11345SOL     OW35475   7.038   7.335   4.296 -0.3729 -0.5266 -0.1248
11345SOL    HW135476   7.124   7.356   4.334  0.0340 -1.8747 -0.2649
11345SOL    HW235477   7.045   7.362   4.205 -0.9207  1.5290  0.3736
11346SOL     OW35478   7.253   1.648   0.613 -0.0531 -0.1468 -0.1055
11346SOL    HW135479   7.343   1.668   0.586  0.2028 -0.8317  0.2105
11346SOL    HW235480   7.226   1.725   0.663  1.2189 -0.8592  1.8201
11347SOL     OW35481   5.686   5.728   6.806  0.6235  0.0427  0.4033
11347SOL    HW135482   5.626   5.683   6.866  1.3688 -1.2443  0.2140
11347SOL    HW235483   5.768   5.681   6.814  1.4606  1.3931  0.1832
11348SOL     OW35484   2.147   1.275   1.068 -0.0476  0.1964 -0.4115
11348SOL    HW135485   2.114   1.253   1.155  0.7101  0.6202 -0.0017
11348SOL    HW235486   2.071   1.310   1.021 -0.1220  1.4708  0.6101
11349SOL     OW35487   4.808   0.933   1.534  0.2727 -0.0267  0.2456
11349SOL    HW135488   4.794   0.868   1.603 -0.0118 -0.4446 -0.2007
11349SOL    HW235489   4.884   0.901   1.485  0.8724  0.5988  0.7390
11350SOL     OW35490   3.573   5.169   7.063  0.5430  0.2046  0.0531
11350SOL    HW135491   3.494   5.124   7.032 -1.6555  1.5636  3.1305
11350SOL    HW235492   3.632   5.098   7.090 -1.0329 -0.8961  0.7811
11351SOL     OW35493   6.341   6.790   6.083  0.1047  0.4923  0.9155
11351SOL    HW135494   6.270   6.835   6.037 -0.9597 -0.8860  1.1670
11351SOL    HW235495   6.319   6.800   6.176 -1.0344 -1.8192  0.9688
11352SOL     OW35496   1.792   2.170   8.315 -0.2155  0.7028  0.4398
11352SOL    HW135497   1.755   2.179   8.227  0.9567  0.2417 -0.1182
11352SOL    HW235498   1.750   2.091   8.350 -0.5563  0.7892  0.2311
11353SOL     OW35499   6.598   2.071   1.750  0.0660 -0.5230  0.9502
11353SOL    HW135500   6.690   2.076   1.724 -0.0237  0.9356  0.8416
11353SOL    HW235501   6.582   2.154   1.795 -1.3661 -0.4829  0.3919
11354SOL     OW35502   6.272   6.551   9.585 -0.3037  0.3278  0.3172
11354SOL    HW135503   6.266   6.580   9.494 -0.1830  1.1091  0.5492
11354SOL    HW235504   6.184   6.564   9.620 -1.3827 -3.2681 -0.5957
11355SOL     OW35505   4.285   6.544   5.127 -0.0932  0.2649  0.0617
11355SOL    HW135506   4.311   6.460   5.087 -0.0850  0.3300 -0.0691
11355SOL    HW235507   4.355   6.605   5.102  0.2631  0.1496  0.7300
11356SOL     OW35508   6.294   7.876   4.130  0.1720 -0.0281  0.3211
11356SOL    HW135509   6.331   7.874   4.041  0.9043  1.7719  0.5520
11356SOL    HW235510   6.296   7.784   4.158 -1.2954 -0.8517 -1.9771
11357SOL     OW35511   5.535   1.920  11.166  0.1853  0.7141 -0.4629
11357SOL    HW135512   5.576   1.992  11.214  0.7049  1.6769 -2.2650
11357SOL    HW235513   5.571   1.927  11.078 -1.4581 -0.3865 -1.2625
11358SOL     OW35514   0.966   4.738   4.864  0.0698  0.0465 -0.4748
11358SOL    HW135515   0.893   4.680   4.840 -0.0122 -0.5141  0.9802
11358SOL    HW235516   1.030   4.727   4.794 -0.9503  0.0273 -1.4337
11359SOL     OW35517   6.087   1.311   7.235  0.1472 -0.5906  0.0838
11359SOL    HW135518   6.174   1.278   7.212 -0.6721 -1.7916 -1.4831
11359SOL    HW235519   6.055   1.352   7.155 -0.6033  0.1658  0.7510
11360SOL     OW35520   5.117   4.492   1.493 -0.3122  0.4679 -0.2468
11360SOL    HW135521   5.107   4.442   1.412  0.8188 -0.5641  0.2124
11360SOL    HW235522   5.032   4.534   1.507 -0.8069 -0.0936 -1.4647
11361SOL     OW35523   1.478   6.169   2.763 -0.5104 -0.2153 -0.3737
11361SOL    HW135524   1.502   6.203   2.849  0.7927  0.2208 -0.8845
11361SOL    HW235525   1.483   6.244   2.704 -1.9643 -0.3858 -0.7448
11362SOL     OW35526   6.151   0.309   9.605  0.3307  0.0608 -0.0267
11362SOL    HW135527   6.232   0.349   9.634  0.5597 -0.9583  0.8126
11362SOL    HW235528   6.177   0.251   9.533  0.2963  0.0019  0.0076
11363SOL     OW35529   0.115   1.332   5.709  0.0198 -0.8288  0.3300
11363SOL    HW135530   0.199   1.345   5.666  0.3117 -1.8385  0.5736
11363SOL    HW235531   0.076   1.420   5.713  0.7688 -0.4547 -0.3627
11364SOL     OW35532   2.601   7.573  11.225 -0.5579  0.3740  0.3933
11364SOL    HW135533   2.557   7.527  11.153 -0.1911  1.1188 -0.3220
11364SOL    HW235534   2.670   7.624  11.183 -0.5626  1.0997  1.2324
11365SOL     OW35535   7.705   2.686   1.243 -0.4509 -0.1081 -0.2839
11365SOL    HW135536   7.729   2.778   1.258 -0.6549 -0.2610  1.1453
11365SOL    HW235537   7.778   2.650   1.193 -0.6709  0.9741 -1.4506
11366SOL     OW35538   6.812   0.845   5.802  0.1438  0.1795  0.0058
11366SOL    HW135539   6.782   0.754   5.810  0.5322  0.1338  1.0876
11366SOL    HW235540   6.834   0.871   5.891  1.8287  0.7225 -0.5249
11367SOL     OW35541   3.061   4.505   3.703  0.3684 -0.1561  0.3293
11367SOL    HW135542   2.985   4.562   3.711  0.5178 -0.0249  0.8408
11367SOL    HW235543   3.040   4.428   3.756  1.4624  0.8297  2.3187
11368SOL     OW35544   6.980   5.444   2.953 -0.1251 -0.3868  0.7143
11368SOL    HW135545   6.964   5.538   2.963 -1.4306 -0.2533 -1.8073
11368SOL    HW235546   6.933   5.404   3.026 -0.2282  0.8727  1.3690
11369SOL     OW35547   2.785   6.446   0.019  0.2406 -0.1670 -0.0656
11369SOL    HW135548   2.740   6.390   0.082  0.1778 -0.3682 -0.2863
11369SOL    HW235549   2.785   6.532   0.059  0.2791 -0.3125  0.2498
11370SOL     OW35550   3.694   2.040  10.551 -0.0844 -0.1832  0.6544
11370SOL    HW135551   3.676   1.951  10.581  0.9202 -0.0515  1.7066
11370SOL    HW235552   3.707   2.090  10.631 -0.5254  0.8955  0.0676
11371SOL     OW35553   4.526   2.122   6.556  1.1893 -0.2560  0.0676
11371SOL    HW135554   4.489   2.210   6.561 -0.8380 -1.0976  0.9114
11371SOL    HW235555   4.615   2.132   6.591  1.1562  1.5014 -0.2258
11372SOL     OW35556   6.381   0.361   5.338  0.1160 -0.5143 -0.1385
11372SOL    HW135557   6.330   0.299   5.287 -1.0922  1.4044 -1.3939
11372SOL    HW235558   6.440   0.403   5.275 -0.5275  1.0223  0.2239
11373SOL     OW35559   5.417   0.794   4.997  0.3326 -0.2356 -0.5548
11373SOL    HW135560   5.455   0.746   4.923  0.4128  1.1006 -1.4183
11373SOL    HW235561   5.338   0.744   5.019  0.4954 -0.8572 -1.3172
11374SOL     OW35562   3.603   4.644   4.733  0.0011  0.0942  0.2087
11374SOL    HW135563   3.638   4.714   4.678 -0.8466  0.0353 -0.4100
11374SOL    HW235564   3.553   4.588   4.674 -0.2609 -0.4197  0.8950
11375SOL     OW35565   4.906   5.426   1.664  0.6855 -0.3494 -0.6438
11375SOL    HW135566   4.880   5.426   1.756  1.4145 -1.4420 -0.4233
11375SOL    HW235567   4.828   5.397   1.617 -0.0011  1.1436 -0.5005
11376SOL     OW35568   6.772   1.721   5.013 -0.1230  0.0352 -0.2484
11376SOL    HW135569   6.713   1.780   4.964  0.2069  1.2340  0.7540
11376SOL    HW235570   6.860   1.749   4.987  0.0376  0.1530  0.4047
11377SOL     OW35571   1.370   7.113   3.386  0.2890  0.0306 -0.2032
11377SOL    HW135572   1.309   7.185   3.394 -1.5699 -1.6168  1.8971
11377SOL    HW235573   1.433   7.141   3.319 -1.0887  2.9717 -0.4010
11378SOL     OW35574   0.229   7.478  11.560  0.0954  0.0719 -0.1420
11378SOL    HW135575   0.186   7.563  11.572 -0.6615 -0.4278  0.8934
11378SOL    HW235576   0.197   7.446  11.476  1.0130  1.1641 -0.9161
11379SOL     OW35577   2.142   7.615   7.115  0.2505  0.6443 -0.0774
11379SOL    HW135578   2.193   7.590   7.192  1.7153 -0.8247 -1.4580
11379SOL    HW235579   2.121   7.532   7.072 -1.1396  1.3970 -0.9093
11380SOL     OW35580   5.885   4.065   3.423 -0.1120  0.1634 -0.2016
11380SOL    HW135581   5.807   4.064   3.369  0.2058 -1.8708 -0.6999
11380SOL    HW235582   5.957   4.080   3.361 -0.0233  1.3213  0.1592
11381SOL     OW35583   3.566   1.950   7.908  0.2871 -0.4181 -0.1511
11381SOL    HW135584   3.637   2.013   7.921 -1.1119  1.3752 -0.8300
11381SOL    HW235585   3.556   1.907   7.992  2.4825 -1.0843 -0.1729
11382SOL     OW35586   5.522   4.062   8.328  0.3882 -0.0371  0.4944
11382SOL    HW135587   5.442   4.019   8.359 -0.1990  1.2690  0.8432
11382SOL    HW235588   5.592   4.025   8.382 -0.2227  0.0311  1.3474
11383SOL     OW35589   6.567   4.789   5.210  0.6974 -0.1384 -0.3698
11383SOL    HW135590   6.473   4.802   5.223  0.7283  1.7029 -1.6304
11383SOL    HW235591   6.583   4.699   5.239 -1.8029 -1.1634 -1.8119
11384SOL     OW35592   5.021   3.620   2.148  0.3416 -0.1918 -0.4261
11384SOL    HW135593   4.946   3.577   2.105  0.0275  0.3280 -0.4059
11384SOL    HW235594   5.082   3.639   2.077  0.1025  0.0953 -0.5569
11385SOL     OW35595   6.196   6.045   6.497  0.1555  0.0964  0.1134
11385SOL    HW135596   6.102   6.062   6.498 -0.0941 -1.1172  1.7346
11385SOL    HW235597   6.236   6.127   6.524 -0.5688  0.1018  1.2221
11386SOL     OW35598   7.457   4.810   8.941  0.1597 -0.8627  0.1917
11386SOL    HW135599   7.435   4.743   9.006 -0.1646 -0.8936  0.0520
11386SOL    HW235600   7.384   4.808   8.879  1.0828 -1.7625 -0.9167
11387SOL     OW35601   6.800   6.101   6.179  0.6702 -0.0063  0.6285
11387SOL    HW135602   6.861   6.073   6.110  0.1233  2.1029 -0.8244
11387SOL    HW235603   6.759   6.180   6.143 -0.8043  0.2693  2.7663
11388SOL     OW35604   6.700   7.275  10.729 -0.1488  0.2652  0.0322
11388SOL    HW135605   6.671   7.198  10.681  1.8851 -0.5466 -0.0193
11388SOL    HW235606   6.711   7.342  10.661  1.2394 -0.4177 -0.4580
11389SOL     OW35607   4.464   7.689   8.149  0.1265  0.4434  0.0512
11389SOL    HW135608   4.402   7.687   8.076 -0.0623  0.4288  0.2096
11389SOL    HW235609   4.550   7.681   8.108 -0.0660 -2.4089 -0.0192
11390SOL     OW35610   0.005   5.041  12.167  0.4502  0.1963 -0.0278
11390SOL    HW135611  -0.035   4.955  12.182 -0.6620  0.6723 -0.1465
11390SOL    HW235612  -0.064   5.092  12.125  0.8493  1.3843  0.7102
11391SOL     OW35613   3.214   4.705   6.746  0.1662 -0.2159  0.2150
11391SOL    HW135614   3.150   4.677   6.681 -1.2931  0.2364  1.3873
11391SOL    HW235615   3.241   4.624   6.790  0.8720 -0.4757 -0.6748
11392SOL     OW35616   0.470   7.931   4.325  0.3531  0.2462  0.0785
11392SOL    HW135617   0.511   7.962   4.406 -0.1063  2.4629 -0.4764
11392SOL    HW235618   0.380   7.961   4.331 -0.1484 -1.0457 -0.5387
11393SOL     OW35619   6.027   4.427  10.460 -0.2713  0.5158 -0.2240
11393SOL    HW135620   6.099   4.476  10.421 -1.3537  1.0082 -1.7059
11393SOL    HW235621   5.948   4.465  10.421 -1.4205  0.5171  1.9075
11394SOL     OW35622   6.024   0.437   6.313 -0.8096 -0.6448  0.0171
11394SOL    HW135623   5.970   0.372   6.267 -0.3140 -0.3261 -1.0433
11394SOL    HW235624   6.108   0.393   6.326 -0.8471 -0.6209  0.3511
11395SOL     OW35625   7.849   6.395   7.469  0.2755  0.1854  0.0390
11395SOL    HW135626   7.901   6.316   7.483  0.5198  0.1790 -0.8934
11395SOL    HW235627   7.795   6.375   7.393  0.0002  0.7439  0.0871
11396SOL     OW35628   1.373   2.822   6.727  0.0590  0.9693 -0.4689
11396SOL    HW135629   1.429   2.895   6.752 -0.4994  0.7844  1.4377
11396SOL    HW235630   1.286   2.862   6.717  0.0282  0.8060 -0.8622
11397SOL     OW35631   1.571   4.882   2.504 -0.3341  0.1339  0.2075
11397SOL    HW135632   1.496   4.920   2.458 -0.1761 -1.4391 -1.4578
11397SOL    HW235633   1.617   4.831   2.437  0.9276 -0.8110  1.7241
11398SOL     OW35634   2.483   3.042   5.577  0.2652 -1.0294  0.1876
11398SOL    HW135635   2.529   3.083   5.650  0.3292 -0.4932 -0.1455
11398SOL    HW235636   2.401   3.011   5.614  0.7271 -1.6609  0.7066
11399SOL     OW35637   2.981   2.207  11.145  0.7429 -0.0292  0.0923
11399SOL    HW135638   2.892   2.232  11.171 -0.3238 -1.1251 -2.1871
11399SOL    HW235639   3.029   2.200  11.228 -0.9003  1.9153  1.3037
11400SOL     OW35640   3.714   6.667   2.233  0.9420 -0.2121  0.0872
11400SOL    HW135641   3.791   6.724   2.242  1.3546 -0.9977  1.7973
11400SOL    HW235642   3.743   6.582   2.264 -0.7982 -0.3593  1.4692
11401SOL     OW35643   7.892   4.145   4.570 -0.0782 -0.0068  0.2695
11401SOL    HW135644   7.940   4.064   4.588 -0.9944 -0.6026  0.0894
11401SOL    HW235645   7.903   4.197   4.650  1.5499  0.2427 -0.0667
11402SOL     OW35646   7.229   7.432  12.407 -0.3780  0.1106  0.1118
11402SOL    HW135647   7.256   7.502  12.349 -2.0661  0.3157 -0.4924
11402SOL    HW235648   7.310   7.387  12.430  0.4220  0.4448 -1.8561
11403SOL     OW35649   1.539   0.573   3.054 -0.0395 -0.4669  0.4900
11403SOL    HW135650   1.536   0.625   3.135  0.0834 -1.5051  1.1723
11403SOL    HW235651   1.594   0.498   3.076 -0.2184 -0.8936 -0.4909
11404SOL     OW35652   7.623   7.680   4.873 -0.1503  0.0683  0.0566
11404SOL    HW135653   7.568   7.659   4.948 -0.5998  2.1517  0.3604
11404SOL    HW235654   7.685   7.745   4.905  0.2842  0.2796 -1.1336
11405SOL     OW35655   6.909   2.742   1.745 -0.1187 -0.3156 -0.3840
11405SOL    HW135656   6.875   2.654   1.727 -0.1041 -0.8044  1.7479
11405SOL    HW235657   6.852   2.776   1.813  0.8274  0.7175 -0.0774
11406SOL     OW35658   1.033   2.297   0.541 -0.3277  0.4408 -0.3315
11406SOL    HW135659   1.088   2.275   0.616 -0.4336  0.7638 -0.1588
11406SOL    HW235660   0.983   2.217   0.524 -0.6856  0.5295  0.2715
11407SOL     OW35661   4.696   7.151   3.709 -0.3829 -0.3459  0.6713
11407SOL    HW135662   4.738   7.196   3.782  1.1295 -0.3741 -0.1400
11407SOL    HW235663   4.665   7.068   3.746 -0.7110  0.1553  1.5356
11408SOL     OW35664   3.418   2.439  10.647  0.4142 -0.3757  0.2708
11408SOL    HW135665   3.469   2.512  10.612 -0.4884  0.9317  1.5573
11408SOL    HW235666   3.327   2.459  10.623  0.1824 -1.2533  0.3677
11409SOL     OW35667   3.832   5.249   0.025 -0.1175  0.7761  0.4252
11409SOL    HW135668   3.799   5.188  -0.041  1.0520  1.5896 -0.9992
11409SOL    HW235669   3.843   5.196   0.104 -0.0643 -0.6350 -0.4875
11410SOL     OW35670   5.415   5.302   6.428 -0.0462  0.0779  0.4181
11410SOL    HW135671   5.504   5.265   6.433 -0.5825 -1.3489 -0.1108
11410SOL    HW235672   5.387   5.309   6.519  0.6238  0.5768  0.5923
11411SOL     OW35673   5.948   4.912   9.246 -0.1638 -0.1569 -0.1484
11411SOL    HW135674   5.957   4.994   9.295 -3.4096  0.8131 -0.9157
11411SOL    HW235675   5.890   4.859   9.301  0.8549 -1.4175 -0.2739
11412SOL     OW35676   4.744   1.062  10.727 -0.4881 -0.1318 -0.0567
11412SOL    HW135677   4.757   1.037  10.635 -3.2598 -0.5752 -0.4107
11412SOL    HW235678   4.804   1.005  10.775  0.6372 -0.2617 -1.5415
11413SOL     OW35679   2.831   6.883   1.347  0.3236 -0.4558  0.0913
11413SOL    HW135680   2.876   6.833   1.415  1.6287  0.5613  0.0274
11413SOL    HW235681   2.835   6.974   1.377  0.6687 -0.0202 -1.1826
11414SOL     OW35682   4.047   1.224   6.569 -0.3288 -0.0860 -0.3689
11414SOL    HW135683   4.073   1.200   6.480 -2.3409  0.1142 -1.0593
11414SOL    HW235684   4.007   1.145   6.605 -1.6643  0.5059 -0.5159
11415SOL     OW35685   5.767   7.226   0.945 -0.3477  0.0741  0.5263
11415SOL    HW135686   5.759   7.154   1.008 -2.3847 -0.1276  0.1083
11415SOL    HW235687   5.681   7.269   0.947 -0.2228  0.5215 -1.5374
11416SOL     OW35688   3.874   7.632   1.184 -0.1872 -0.0604 -0.2628
11416SOL    HW135689   3.939   7.562   1.191 -0.4751 -0.5356 -1.8641
11416SOL    HW235690   3.789   7.587   1.189 -0.4244 -0.2542 -3.5785
11417SOL     OW35691   5.669   1.038   8.528 -0.2562  0.1345 -0.2129
11417SOL    HW135692   5.686   1.002   8.441  2.8230  3.7981 -1.4215
11417SOL    HW235693   5.574   1.044   8.533 -0.6385 -2.5653 -2.1705
11418SOL     OW35694   1.655   4.979   4.228  0.7950  0.6492  0.2489
11418SOL    HW135695   1.653   4.941   4.140 -0.8832 -0.6590  0.7875
11418SOL    HW235696   1.740   4.953   4.263  0.5966 -0.7629 -0.2181
11419SOL     OW35697   7.623   1.479   6.114  0.0548  0.1614 -0.0986
11419SOL    HW135698   7.532   1.468   6.138 -0.0502 -0.4031 -0.7131
11419SOL    HW235699   7.649   1.563   6.152 -0.4571 -0.1020  0.8372
11420SOL     OW35700   4.096   4.258  11.578 -0.0676 -0.0627 -0.4259
11420SOL    HW135701   4.124   4.334  11.527  1.1379 -0.0264  0.2570
11420SOL    HW235702   4.001   4.267  11.584 -0.0405  0.8342 -1.2277
11421SOL     OW35703   6.515   4.352   2.085  0.6076 -0.2161  0.4085
11421SOL    HW135704   6.567   4.386   2.012  0.1618  0.2720  0.3161
11421SOL    HW235705   6.525   4.257   2.079 -0.4048 -0.2549 -1.0114
11422SOL     OW35706   7.795   6.063   9.335  0.1788  0.6406 -0.2863
11422SOL    HW135707   7.724   6.066   9.399  0.3720  1.1815 -0.0920
11422SOL    HW235708   7.762   6.007   9.265 -0.2018  0.3997  0.0856
11423SOL     OW35709   7.824   1.900   0.632 -0.1823  0.5606 -0.4524
11423SOL    HW135710   7.777   1.943   0.704 -1.8144  1.0102 -1.7172
11423SOL    HW235711   7.873   1.970   0.590  0.2478  0.4246 -0.1813
11424SOL     OW35712   4.900   2.749   9.140 -0.6232  0.1248 -0.3247
11424SOL    HW135713   4.880   2.818   9.203  1.0244  0.7449 -0.4352
11424SOL    HW235714   4.840   2.765   9.067 -0.7699  0.9855 -0.0271
11425SOL     OW35715   4.649   3.021   4.726 -0.0243 -0.0702  0.0531
11425SOL    HW135716   4.720   3.044   4.786 -0.9625  1.2599  0.7046
11425SOL    HW235717   4.597   2.957   4.774  0.5026 -0.7446 -0.2667
11426SOL     OW35718   3.969   7.489   8.184 -0.1133  0.2579  0.0562
11426SOL    HW135719   3.958   7.530   8.099 -1.9010 -0.2747 -0.0111
11426SOL    HW235720   3.988   7.397   8.165  1.8505  0.5883  0.2354
11427SOL     OW35721   3.200   4.156   1.718  0.2446  0.3499 -0.0900
11427SOL    HW135722   3.141   4.214   1.765 -0.3479 -0.9621  0.8604
11427SOL    HW235723   3.272   4.140   1.779  0.4450  0.1640 -0.3712
11428SOL     OW35724   1.449   7.097  11.258 -0.0836 -0.2732 -0.2158
11428SOL    HW135725   1.489   7.134  11.180 -0.7555  1.1363  0.0700
11428SOL    HW235726   1.517   7.103  11.325  0.5796 -1.7169 -0.7221
11429SOL     OW35727   1.186   7.781   3.503  0.9943 -0.1713 -0.2209
11429SOL    HW135728   1.216   7.727   3.576  1.7293 -1.0354 -1.1472
11429SOL    HW235729   1.156   7.719   3.437 -2.5897  0.5894  0.4549
11430SOL     OW35730   7.751   5.398   9.706  0.1500  0.1592  0.3029
11430SOL    HW135731   7.689   5.407   9.778  0.0433  1.2020  0.0950
11430SOL    HW235732   7.781   5.487   9.688  1.2827 -0.2567  0.0215
11431SOL     OW35733   1.862   6.467   5.274 -0.2951 -0.4092 -0.5144
11431SOL    HW135734   1.802   6.518   5.220  0.3055 -0.3690 -1.1650
11431SOL    HW235735   1.810   6.440   5.350 -0.9461  0.1620 -0.7479
11432SOL     OW35736   7.159   3.705   1.397  0.4113 -0.0277  0.7583
11432SOL    HW135737   7.246   3.699   1.358  0.8420  2.8897  1.0486
11432SOL    HW235738   7.174   3.733   1.487 -0.7918 -1.5725  1.5000
11433SOL     OW35739   6.399   1.442   5.511 -0.5627  0.1892 -0.3264
11433SOL    HW135740   6.463   1.459   5.580 -2.1126 -0.5478  1.3660
11433SOL    HW235741   6.411   1.350   5.488  0.1025  0.4894 -1.2394
11434SOL     OW35742   5.917   2.921   5.212  0.1112  0.2111  0.1222
11434SOL    HW135743   5.996   2.960   5.249  0.6059 -1.8974  1.4732
11434SOL    HW235744   5.886   2.861   5.280 -0.5899 -1.7037 -1.7957
11435SOL     OW35745   7.625   4.752   2.636  0.2841 -0.1026 -0.3875
11435SOL    HW135746   7.617   4.689   2.564  1.9368 -2.0057  0.9696
11435SOL    HW235747   7.702   4.805   2.613 -0.2537  0.4946 -0.8443
11436SOL     OW35748   1.252   3.072   4.904 -0.0073 -0.2045 -0.0288
11436SOL    HW135749   1.328   3.033   4.947 -0.5991  0.5641  1.8437
11436SOL    HW235750   1.186   3.003   4.905  0.5918 -0.8483 -1.5905
11437SOL     OW35751   0.949   5.398  11.329 -0.3377 -0.1357  0.1631
11437SOL    HW135752   0.862   5.433  11.314 -0.0867  0.8566  0.9097
11437SOL    HW235753   0.999   5.472  11.363  0.7018 -0.7749  0.0717
11438SOL     OW35754   2.280   1.322  12.438 -0.3793 -0.0969 -0.0034
11438SOL    HW135755   2.296   1.330  12.532  1.4303 -0.6567 -0.2145
11438SOL    HW235756   2.322   1.238  12.414 -0.2338  0.3474 -1.4064
11439SOL     OW35757   5.822   2.273   1.230 -0.4091 -0.2505 -0.1403
11439SOL    HW135758   5.905   2.238   1.199  0.5821  0.9754  1.0040
11439SOL    HW235759   5.841   2.364   1.252 -1.7279 -0.2859  1.3586
11440SOL     OW35760   2.792   1.368   9.755 -0.7901 -0.1750 -0.2866
11440SOL    HW135761   2.741   1.428   9.700  0.1400 -0.1198 -1.1360
11440SOL    HW235762   2.751   1.283   9.743 -1.2530  0.0338 -0.2055
11441SOL     OW35763   7.475   2.960  10.721  0.4735  0.4130  0.2075
11441SOL    HW135764   7.545   2.912  10.764 -0.2437 -1.2092 -0.3495
11441SOL    HW235765   7.447   2.903  10.649 -0.8522  1.3861 -0.0994
11442SOL     OW35766   5.186   6.261   3.311 -0.3359  0.1079 -0.2786
11442SOL    HW135767   5.094   6.284   3.313 -0.3389  0.0342  0.9606
11442SOL    HW235768   5.222   6.313   3.239 -0.9983  1.4286  0.3213
11443SOL     OW35769   2.648   4.210   4.002  0.2189 -0.7362  0.3617
11443SOL    HW135770   2.638   4.120   3.972 -0.4280 -0.3601 -0.6068
11443SOL    HW235771   2.593   4.216   4.080 -0.1329 -1.0377  0.1346
11444SOL     OW35772   0.586   3.919   5.393  0.0681  0.0854 -0.5075
11444SOL    HW135773   0.640   3.872   5.330 -0.3000  1.1680 -1.6845
11444SOL    HW235774   0.623   4.007   5.396 -0.3486  0.2446  0.2629
11445SOL     OW35775   0.941   5.974   8.987 -0.6312 -0.1079 -0.2030
11445SOL    HW135776   0.927   5.883   8.961 -1.8852 -0.1967  0.6840
11445SOL    HW235777   0.950   6.022   8.904  0.4576 -1.0739 -0.6713
11446SOL     OW35778   2.525   2.227   2.052  0.2186  0.1987 -0.2060
11446SOL    HW135779   2.526   2.322   2.062  0.3352  0.1497  0.2900
11446SOL    HW235780   2.570   2.211   1.969  1.5425  0.4946  0.4233
11447SOL     OW35781   3.543   3.123   9.131 -0.1783  0.0756 -0.9696
11447SOL    HW135782   3.601   3.057   9.169 -0.0765  0.1107 -1.0624
11447SOL    HW235783   3.514   3.084   9.048 -1.6652 -0.6880 -0.1375
11448SOL     OW35784   2.584   0.790   0.275  0.2271  0.0174 -0.7143
11448SOL    HW135785   2.638   0.831   0.342  1.6480 -0.5399 -1.4668
11448SOL    HW235786   2.552   0.863   0.222  0.1897  0.3589 -0.2263
11449SOL     OW35787   1.270   4.552  11.624  0.0533 -0.1711  0.0732
11449SOL    HW135788   1.190   4.528  11.577  1.5166 -1.8935 -1.7128
11449SOL    HW235789   1.333   4.484  11.600  2.2954  1.5358  0.8192
11450SOL     OW35790   5.341   1.558   7.448  0.1466  0.1844 -0.4092
11450SOL    HW135791   5.268   1.554   7.386  0.1040  0.7356 -0.3937
11450SOL    HW235792   5.419   1.541   7.394  0.0803  0.3622 -0.5624
11451SOL     OW35793   5.128   2.592   2.705  0.1550  0.2694  0.4143
11451SOL    HW135794   5.064   2.661   2.720  1.0086  0.9521  0.9801
11451SOL    HW235795   5.166   2.612   2.620 -0.5229 -0.2640 -0.0261
11452SOL     OW35796   0.683   3.785   8.495 -0.3254  0.2147  0.2718
11452SOL    HW135797   0.668   3.848   8.425 -0.0378 -0.5590 -0.5092
11452SOL    HW235798   0.776   3.762   8.487 -0.3582 -0.0924  0.7307
11453SOL     OW35799   4.692   6.836   9.637  0.4518  0.2494  0.3277
11453SOL    HW135800   4.617   6.874   9.591  0.9218  0.3498 -0.3589
11453SOL    HW235801   4.657   6.755   9.675  0.7209 -1.3983 -2.6531
11454SOL     OW35802   3.062   2.621   5.095 -0.3513 -0.4410 -0.1680
11454SOL    HW135803   2.969   2.640   5.081 -0.2908 -0.1604 -0.1925
11454SOL    HW235804   3.102   2.706   5.113  0.1668 -0.3305 -1.6669
11455SOL     OW35805   7.350   0.455   1.903 -0.4540 -0.4594 -0.3023
11455SOL    HW135806   7.333   0.473   1.996  0.1652  1.1860 -0.4805
11455SOL    HW235807   7.443   0.434   1.899  0.1880  2.1984 -0.8711
11456SOL     OW35808   5.320   7.215   8.427 -0.1204  0.2553 -0.8731
11456SOL    HW135809   5.319   7.119   8.433  0.5368  0.2553 -0.7326
11456SOL    HW235810   5.388   7.242   8.488 -1.3975  0.9090  0.3089
11457SOL     OW35811   0.022   1.179   0.446  0.4171  0.0500 -0.2835
11457SOL    HW135812   0.008   1.272   0.460  2.6933  0.5250 -0.7701
11457SOL    HW235813   0.071   1.150   0.524 -0.4348 -0.8147 -0.0395
11458SOL     OW35814   3.255   1.141   3.241  0.2080 -1.0542  0.3569
11458SOL    HW135815   3.208   1.138   3.158 -0.4391  1.2698  0.5711
11458SOL    HW235816   3.241   1.230   3.273 -0.0621 -2.0335  3.2561
11459SOL     OW35817   1.452   6.358   1.728 -0.6159  0.0730  0.2373
11459SOL    HW135818   1.391   6.430   1.713  1.0534  1.2160 -1.6758
11459SOL    HW235819   1.526   6.378   1.671  0.6956 -2.2621  0.9972
11460SOL     OW35820   2.238   7.439   1.656 -0.4486  0.0041  0.2411
11460SOL    HW135821   2.147   7.442   1.685 -0.2964  1.0007  0.6667
11460SOL    HW235822   2.281   7.382   1.720 -0.3118  1.4268  1.4684
11461SOL     OW35823   7.631   1.888   9.154  0.1041  0.0550 -0.1706
11461SOL    HW135824   7.629   1.798   9.121 -0.0829  0.1358 -0.3803
11461SOL    HW235825   7.552   1.928   9.117  1.2460  0.9150 -1.7629
11462SOL     OW35826   1.697   7.111   6.457 -0.1749 -0.3820 -0.3305
11462SOL    HW135827   1.685   7.088   6.365  3.4153  1.9937 -1.6240
11462SOL    HW235828   1.692   7.207   6.458  0.6103 -0.3130  1.8429
11463SOL     OW35829   5.026   1.493  11.172  0.3498 -0.0068  0.7454
11463SOL    HW135830   5.015   1.587  11.158  2.0702  0.2898  1.1863
11463SOL    HW235831   4.957   1.453  11.119  0.3869  1.4465 -0.4787
11464SOL     OW35832   4.585   0.589   5.019  0.0615 -0.2066  0.1198
11464SOL    HW135833   4.608   0.681   5.030 -1.4907  0.3484 -1.0214
11464SOL    HW235834   4.507   0.577   5.073 -1.2430 -0.1664 -1.6710
11465SOL     OW35835   1.450   3.389   7.382  0.1963 -0.6339  0.5627
11465SOL    HW135836   1.458   3.481   7.360 -2.9533 -0.4984 -0.4676
11465SOL    HW235837   1.393   3.387   7.459 -0.9205 -1.7259 -0.2493
11466SOL     OW35838   2.865   2.125   7.228  0.3048 -0.3473  0.3219
11466SOL    HW135839   2.915   2.206   7.235  1.1113 -0.9119  1.4484
11466SOL    HW235840   2.797   2.144   7.164  2.5712  0.1252 -2.0965
11467SOL     OW35841   6.926   1.865   5.579 -0.5536  0.5246  0.1424
11467SOL    HW135842   6.865   1.809   5.531 -0.1087  0.6595 -0.5898
11467SOL    HW235843   7.012   1.843   5.542 -0.3510  1.5320  0.0083
11468SOL     OW35844   7.591   5.288  12.151 -0.0389  1.1210  0.2659
11468SOL    HW135845   7.545   5.209  12.122  0.1159  0.9569  0.4673
11468SOL    HW235846   7.566   5.298  12.243  0.1650  1.1444  0.3197
11469SOL     OW35847   4.967   0.321   3.833 -0.2844  0.4137 -0.4242
11469SOL    HW135848   4.997   0.373   3.758 -2.3322  0.8358 -1.0277
11469SOL    HW235849   5.047   0.292   3.876  0.9461  1.2383 -2.0384
11470SOL     OW35850   1.201   0.824   1.546  0.1081 -0.1292 -0.6360
11470SOL    HW135851   1.172   0.791   1.461 -2.2371 -0.2012  0.0994
11470SOL    HW235852   1.156   0.908   1.556  0.0834 -0.2668  0.6494
11471SOL     OW35853   3.031   1.691   5.405 -0.2519 -0.0061  0.7410
11471SOL    HW135854   2.994   1.722   5.322  1.7792  0.1474 -0.1564
11471SOL    HW235855   3.112   1.647   5.381  2.6935  3.6451  2.8492
11472SOL     OW35856   2.349   4.614  10.298 -0.0380 -0.6841 -0.1623
11472SOL    HW135857   2.348   4.536  10.353  2.8718 -1.0371 -0.4784
11472SOL    HW235858   2.371   4.581  10.211  2.6944  0.5347 -0.0260
11473SOL     OW35859   4.383   7.818   7.734 -0.3804 -0.0825  0.4543
11473SOL    HW135860   4.304   7.840   7.784 -0.2146  1.5921  0.0124
11473SOL    HW235861   4.384   7.879   7.661  0.5896 -1.0236 -0.3565
11474SOL     OW35862   5.445   0.658  10.124  0.2464 -0.1968 -0.5510
11474SOL    HW135863   5.399   0.574  10.124 -1.0353  0.4832 -0.9245
11474SOL    HW235864   5.503   0.653  10.200 -0.1669 -1.2242 -0.2813
11475SOL     OW35865   5.183   6.617   3.395 -0.2262  0.2118  0.1897
11475SOL    HW135866   5.153   6.531   3.424 -0.6423  1.0695  2.4679
11475SOL    HW235867   5.104   6.659   3.358 -0.0364 -0.3127 -0.8646
11476SOL     OW35868   0.908   4.994   9.405  0.6547 -0.0602 -0.1736
11476SOL    HW135869   0.936   4.935   9.335 -0.5545 -0.1227 -0.6180
11476SOL    HW235870   0.813   4.996   9.398  0.5803  0.6559  0.8933
11477SOL     OW35871   0.270   7.824   3.622 -0.4962 -0.4071  0.0872
11477SOL    HW135872   0.282   7.731   3.603 -0.1807 -0.5572  0.9759
11477SOL    HW235873   0.226   7.859   3.544 -0.5872 -1.2890 -0.2689
11478SOL     OW35874   1.420   5.695   5.000  0.6071 -0.0985 -0.1473
11478SOL    HW135875   1.467   5.777   5.016  1.0603 -0.3571 -0.1280
11478SOL    HW235876   1.440   5.673   4.909  0.3524 -0.1004 -0.2017
11479SOL     OW35877   4.412   5.314   0.550  0.0802  0.0483  0.0746
11479SOL    HW135878   4.375   5.252   0.487 -0.9018  0.3460  0.3382
11479SOL    HW235879   4.440   5.259   0.623  0.4152 -0.2117 -0.2464
11480SOL     OW35880   0.736   5.949  11.987  0.4474  0.4068  0.0963
11480SOL    HW135881   0.713   5.939  12.079 -0.6697 -0.1657 -0.2306
11480SOL    HW235882   0.666   6.003  11.950  0.1327 -0.5045 -0.6947
11481SOL     OW35883   2.610   4.832   0.269 -0.1276 -0.2272  0.1810
11481SOL    HW135884   2.678   4.768   0.288 -1.0303 -1.2052  0.2050
11481SOL    HW235885   2.638   4.911   0.315  1.2883 -0.4189 -0.3090
11482SOL     OW35886   4.706   0.396   2.911  0.4531  1.1460  0.1728
11482SOL    HW135887   4.692   0.452   2.835 -1.7811  0.8970  0.3366
11482SOL    HW235888   4.621   0.392   2.954  1.2195 -0.1997  1.6848
11483SOL     OW35889   2.235   1.421   4.336 -0.2218 -0.3217  0.3031
11483SOL    HW135890   2.181   1.426   4.257  0.1838 -0.7415 -0.0012
11483SOL    HW235891   2.229   1.330   4.364  1.4117 -0.7156 -0.5055
11484SOL     OW35892   1.097   5.227   9.325  0.5279 -0.5802  0.7874
11484SOL    HW135893   1.030   5.212   9.392 -1.1542  1.5460 -0.2930
11484SOL    HW235894   1.096   5.148   9.271 -1.2909 -0.5180  0.6835
11485SOL     OW35895   0.041   6.459  11.167  0.2810  0.5147 -0.1392
11485SOL    HW135896   0.103   6.398  11.207  0.0422  0.4349  0.1038
11485SOL    HW235897  -0.026   6.473  11.233  0.7570  1.6848  0.1383
11486SOL     OW35898   3.909   2.632   4.376 -0.0348  0.3199 -0.3540
11486SOL    HW135899   3.880   2.710   4.328  0.6920  0.8060 -0.0154
11486SOL    HW235900   3.977   2.594   4.320  1.5480  1.4559  0.7234
11487SOL     OW35901   5.627   1.420  11.792 -1.0476 -0.0536 -0.0766
11487SOL    HW135902   5.636   1.435  11.697  0.3913 -0.4190 -0.0282
11487SOL    HW235903   5.587   1.500  11.825 -0.6043  0.5111 -0.8644
11488SOL     OW35904   3.399   0.264   6.536 -0.5595 -0.0305 -0.2881
11488SOL    HW135905   3.348   0.273   6.456 -0.3248  0.9219 -0.3488
11488SOL    HW235906   3.427   0.173   6.537 -2.4918 -0.6737 -0.1035
11489SOL     OW35907   2.101   6.298   3.204 -0.0870  0.2725  0.3502
11489SOL    HW135908   2.054   6.381   3.201  0.9687  0.9534  1.7964
11489SOL    HW235909   2.050   6.243   3.263 -0.5404  0.0170 -0.2588
11490SOL     OW35910   2.723   7.059   4.502  0.0930  0.2087  0.4477
11490SOL    HW135911   2.789   7.102   4.448 -1.2748 -0.5834 -2.0060
11490SOL    HW235912   2.670   7.131   4.536 -0.9426  0.6874 -1.9618
11491SOL     OW35913   1.589   0.355   0.939 -0.3153 -0.3922  0.0622
11491SOL    HW135914   1.682   0.360   0.918  0.0163 -1.6136  1.0594
11491SOL    HW235915   1.579   0.269   0.981 -2.3969 -1.5599 -2.4856
11492SOL     OW35916   4.918   1.010   9.655 -0.2177  0.2668 -0.4694
11492SOL    HW135917   4.919   0.932   9.599 -0.1168 -1.7695  2.1816
11492SOL    HW235918   4.835   1.003   9.702  1.3620 -0.3350  2.4444
11493SOL     OW35919   6.408   2.052   1.549  0.2930  0.3714  0.4588
11493SOL    HW135920   6.432   2.080   1.461  0.6623 -1.1389  0.0580
11493SOL    HW235921   6.487   2.066   1.601 -0.2424  2.2634  0.8256
11494SOL     OW35922   4.954   4.038   7.860 -0.7507 -0.4804  0.4811
11494SOL    HW135923   4.874   4.084   7.887 -0.3898 -0.7950  2.2342
11494SOL    HW235924   5.012   4.106   7.828 -1.4378 -0.1532 -0.0935
11495SOL     OW35925   6.481   3.808   6.054  0.1674 -0.1971 -0.1148
11495SOL    HW135926   6.435   3.879   6.010  1.2889  1.6049  1.4440
11495SOL    HW235927   6.562   3.797   6.005  0.0291 -0.3326 -0.3109
11496SOL     OW35928   4.237   2.170  11.136  0.1027 -0.1298  0.1779
11496SOL    HW135929   4.169   2.121  11.090 -1.2819 -0.0202  1.9668
11496SOL    HW235930   4.246   2.124  11.220 -0.6468  2.1111  1.5848
11497SOL     OW35931   1.690   6.666  10.099 -0.4420 -0.4529  0.7463
11497SOL    HW135932   1.595   6.662  10.108 -0.4762 -0.8000  0.2233
11497SOL    HW235933   1.710   6.760  10.100 -1.0676 -0.2170 -1.8461
11498SOL     OW35934   5.826   4.741   3.199 -0.0160  0.4664 -0.3586
11498SOL    HW135935   5.792   4.661   3.238 -0.8187  0.8519 -0.2451
11498SOL    HW235936   5.904   4.714   3.152  0.8469 -0.0655  1.2939
11499SOL     OW35937   3.982   1.426   2.364  0.2798  0.0011 -0.0459
11499SOL    HW135938   4.076   1.429   2.379  0.0464 -0.0172  1.5941
11499SOL    HW235939   3.973   1.418   2.269  1.9614 -1.2528 -0.1493
11500SOL     OW35940   5.008   0.129   2.818  0.2954  0.1180  0.1385
11500SOL    HW135941   4.946   0.176   2.761 -1.1065  0.2527  1.6804
11500SOL    HW235942   5.090   0.177   2.808 -0.2568  0.9241 -0.7659
11501SOL     OW35943   3.268   1.488  11.357  0.2729 -0.1257  0.3868
11501SOL    HW135944   3.313   1.433  11.421  1.1241  0.3690  0.2196
11501SOL    HW235945   3.278   1.442  11.274 -0.1399 -0.3601  0.4601
11502SOL     OW35946   1.946   0.307   9.334  0.4120 -0.6291 -0.2863
11502SOL    HW135947   1.908   0.282   9.250 -0.9893  0.9046 -0.1523
11502SOL    HW235948   1.991   0.389   9.317  1.4727 -1.0995  0.1508
11503SOL     OW35949   3.786   2.591  12.238 -0.6392  0.0796 -0.6927
11503SOL    HW135950   3.841   2.630  12.170  0.0777  0.4741  0.1027
11503SOL    HW235951   3.712   2.651  12.246 -0.1610  0.6191 -0.3366
11504SOL     OW35952   3.913   5.978  10.072 -0.2840  0.2876 -0.5482
11504SOL    HW135953   3.867   5.938  10.145 -2.2102  1.0223 -1.3047
11504SOL    HW235954   3.916   5.909  10.005  2.0616 -0.6064  0.3767
11505SOL     OW35955   5.171   6.179  12.450 -0.1819 -0.1920 -0.1245
11505SOL    HW135956   5.139   6.227  12.373 -1.6845 -1.1055 -0.1074
11505SOL    HW235957   5.134   6.092  12.440  2.2627 -1.3357 -0.0217
11506SOL     OW35958   7.345   3.428   0.610  0.0847 -0.4579  0.0471
11506SOL    HW135959   7.384   3.432   0.523 -0.4704  1.7418 -0.1714
11506SOL    HW235960   7.408   3.381   0.664  0.8148 -1.1185 -1.3543
11507SOL     OW35961   7.172   1.356   2.301 -0.1606  0.1329 -0.1779
11507SOL    HW135962   7.088   1.347   2.256 -0.6828 -0.9891  0.9633
11507SOL    HW235963   7.154   1.416   2.374  0.2887  0.6702 -0.4961
11508SOL     OW35964   3.188   1.556   4.652 -0.1687 -0.0997  0.3362
11508SOL    HW135965   3.268   1.538   4.603 -0.8640  3.1772 -2.4296
11508SOL    HW235966   3.145   1.471   4.661  1.5431 -1.3320 -2.0565
11509SOL     OW35967   0.905   2.017   8.383  0.2536 -0.0613 -0.7057
11509SOL    HW135968   0.854   1.937   8.394  2.4218 -1.2386  1.7252
11509SOL    HW235969   0.893   2.064   8.466  1.5545  0.5603 -0.8537
11510SOL     OW35970   7.393   2.886  10.276  0.2248 -0.5038  0.7022
11510SOL    HW135971   7.384   2.841  10.360  0.2868 -3.1997 -0.6060
11510SOL    HW235972   7.444   2.825  10.222 -0.1017  0.9723 -1.3906
11511SOL     OW35973   7.189   6.715   4.977  0.2795  0.1406  0.1499
11511SOL    HW135974   7.239   6.796   4.980  1.5254 -0.5904 -0.4370
11511SOL    HW235975   7.190   6.683   5.067 -0.0649  0.6715  0.3488
11512SOL     OW35976   1.584   3.867  12.273 -0.5484 -0.0991 -0.0554
11512SOL    HW135977   1.604   3.955  12.244 -1.6959  0.0764 -0.3943
11512SOL    HW235978   1.539   3.878  12.357 -1.6614 -0.2602 -0.6040
11513SOL     OW35979   4.904   4.146   8.403  0.5553 -0.5364 -0.2305
11513SOL    HW135980   4.935   4.093   8.476  0.9575 -0.8415 -0.6213
11513SOL    HW235981   4.870   4.083   8.339 -1.5042 -0.1943  0.4576
11514SOL     OW35982   3.702   5.400  10.989 -0.5100 -0.0626  0.0063
11514SOL    HW135983   3.609   5.404  11.011 -0.7124 -0.6081 -0.6955
11514SOL    HW235984   3.726   5.308  11.005 -0.1713  0.0075 -0.1024
11515SOL     OW35985   0.079   5.859   1.598 -0.5442 -0.7278  0.4502
11515SOL    HW135986   0.010   5.873   1.663 -0.6332  0.6588  0.0770
11515SOL    HW235987   0.137   5.935   1.608 -0.9194 -0.1146 -1.5306
11516SOL     OW35988   0.605   0.945   3.242  0.0232  0.2854 -0.0782
11516SOL    HW135989   0.558   0.998   3.178  1.1312  2.5253  0.8445
11516SOL    HW235990   0.695   0.942   3.209  0.2195 -0.0473  0.4662
11517SOL     OW35991   4.763   7.159   4.926 -0.3238 -0.0643  0.3406
11517SOL    HW135992   4.744   7.066   4.938 -3.1233  0.5555  1.5211
11517SOL    HW235993   4.718   7.183   4.846  0.0471  0.3710  0.2550
11518SOL     OW35994   0.555   4.088   0.105  0.2226 -0.7399  0.0464
11518SOL    HW135995   0.527   4.117   0.192 -1.5397  1.0690 -1.0319
11518SOL    HW235996   0.500   4.012   0.087  0.0568 -0.6648  0.2229
11519SOL     OW35997   2.277   6.591   6.522  0.6337  0.2641  0.1976
11519SOL    HW135998   2.296   6.515   6.466  1.5530  0.2135  0.5674
11519SOL    HW235999   2.352   6.649   6.509 -0.9948  2.1144 -1.7004
11520SOL     OW36000   2.588   2.312   0.677 -0.0614  0.6349 -0.1162
11520SOL    HW136001   2.557   2.403   0.678 -1.6345  0.1249  0.1127
11520SOL    HW236002   2.508   2.260   0.680  0.8137 -0.7672 -0.5785
11521SOL     OW36003   0.332   4.327   2.447  0.6775  0.1142 -0.0775
11521SOL    HW136004   0.344   4.321   2.541 -0.1690 -0.6762 -0.0029
11521SOL    HW236005   0.298   4.241   2.422  0.1098  0.5849 -0.9762
11522SOL     OW36006   2.223   5.022   6.018 -0.2381  1.5282 -0.3228
11522SOL    HW136007   2.132   5.017   5.988 -0.7172  1.5934  1.0596
11522SOL    HW236008   2.217   5.032   6.113  1.2390 -2.2465  0.3486
11523SOL     OW36009   0.015   1.651   6.738  0.6533 -0.3307 -0.6845
11523SOL    HW136010   0.067   1.656   6.658 -0.3422  2.1495 -1.2479
11523SOL    HW236011   0.054   1.578   6.787  1.4517 -1.7374 -3.2535
11524SOL     OW36012   3.539   6.190   0.462  0.0983 -0.0062 -0.5034
11524SOL    HW136013   3.547   6.238   0.544  1.3088  1.1665 -1.2657
11524SOL    HW236014   3.596   6.114   0.472  0.5755  0.3629 -0.4030
11525SOL     OW36015   3.147   6.091   8.862  0.0416 -0.1503 -0.1468
11525SOL    HW136016   3.176   6.076   8.952 -0.4875  3.1437  0.7056
11525SOL    HW236017   3.188   6.021   8.812  2.2553 -0.7874  2.3156
11526SOL     OW36018   5.012   2.232   3.052  0.3736  0.1410 -0.0951
11526SOL    HW136019   5.086   2.280   3.089  0.3947 -0.0608  0.1273
11526SOL    HW236020   4.939   2.250   3.112  0.0792  0.8310 -0.6408
11527SOL     OW36021   5.260   0.725   3.774  0.3657  0.3627  0.0247
11527SOL    HW136022   5.252   0.706   3.867  0.4414  0.7603  0.1162
11527SOL    HW236023   5.354   0.721   3.757  0.2067 -2.4278 -0.6382
11528SOL     OW36024   5.071   5.641   7.231  0.4978 -0.2848 -0.0402
11528SOL    HW136025   5.049   5.642   7.138  1.4506 -0.5638 -0.2836
11528SOL    HW236026   5.045   5.728   7.263 -2.1939 -1.0315  0.0367
11529SOL     OW36027   6.809   3.474   6.977  0.0935 -0.3006 -0.2643
11529SOL    HW136028   6.862   3.540   6.931 -0.7829  0.9769  0.4900
11529SOL    HW236029   6.776   3.520   7.054 -1.9877 -1.0906 -0.6207
11530SOL     OW36030   5.906   1.744   6.031 -0.1598  0.0959 -0.5327
11530SOL    HW136031   5.986   1.693   6.024  0.3223  0.6939  0.3650
11530SOL    HW236032   5.835   1.680   6.030  0.5022 -0.8537  2.7824
11531SOL     OW36033   5.814   7.607  10.052  0.1453  0.2007 -0.6058
11531SOL    HW136034   5.856   7.557   9.982  1.9830  1.6458 -0.5900
11531SOL    HW236035   5.744   7.549  10.083  0.9602 -1.5501 -1.8607
11532SOL     OW36036   2.749   1.295  10.040 -0.6959  0.2737  0.7180
11532SOL    HW136037   2.800   1.341  10.107 -0.1838  0.2688  0.3370
11532SOL    HW236038   2.805   1.222  10.014 -0.6109  0.6525 -0.1866
11533SOL     OW36039   7.119   6.983   6.574  0.4227  0.0883  0.3828
11533SOL    HW136040   7.078   7.065   6.547  0.9123  0.2983  0.2590
11533SOL    HW236041   7.120   6.929   6.494  0.8668  0.2889  0.2483
11534SOL     OW36042   7.222   4.184   8.447  0.4742  0.0766 -0.2004
11534SOL    HW136043   7.187   4.272   8.433 -0.6053 -0.2929  0.0888
11534SOL    HW236044   7.146   4.126   8.437  1.2555 -0.8713 -0.8628
11535SOL     OW36045   1.398   3.128   1.715  0.7671 -0.0625 -0.3314
11535SOL    HW136046   1.407   3.184   1.792  0.1322 -0.5363  0.0929
11535SOL    HW236047   1.362   3.185   1.648  0.4371  0.1241  0.0010
11536SOL     OW36048   4.616   6.845  10.785  0.1079 -0.3453 -0.2104
11536SOL    HW136049   4.627   6.870  10.694 -1.1258 -1.4194 -0.6886
11536SOL    HW236050   4.665   6.911  10.835  2.8895 -1.0855 -1.7249
11537SOL     OW36051   6.965   7.343   1.569  0.2566 -0.2077 -0.2982
11537SOL    HW136052   6.921   7.427   1.585  0.2407 -0.1377 -0.6936
11537SOL    HW236053   7.052   7.368   1.536  0.1931 -0.3449 -0.5737
11538SOL     OW36054   0.632   2.814   1.962  0.5459 -0.4925 -0.2644
11538SOL    HW136055   0.604   2.852   1.879  1.5488  0.5964 -0.1329
11538SOL    HW236056   0.555   2.819   2.018 -0.2087 -1.4470 -1.1777
11539SOL     OW36057   1.287   3.388  10.972  0.5118 -0.1870  0.2684
11539SOL    HW136058   1.249   3.407  11.058  0.8692 -1.0697  0.6223
11539SOL    HW236059   1.211   3.369  10.916  0.3308 -0.3630  0.5760
11540SOL     OW36060   3.205   2.454   4.086  0.7110 -0.1552  0.5750
11540SOL    HW136061   3.237   2.408   4.164 -0.8155 -2.4298 -0.0564
11540SOL    HW236062   3.118   2.418   4.071  0.9183  0.3051 -2.1382
11541SOL     OW36063   4.615   4.224   4.822  0.1252  0.2396 -0.5654
11541SOL    HW136064   4.582   4.312   4.839  1.6756  0.7155  0.1519
11541SOL    HW236065   4.570   4.196   4.742  0.3662  2.1128 -1.4115
11542SOL     OW36066   5.792   1.311   1.793  0.0306 -0.2373  0.2730
11542SOL    HW136067   5.807   1.321   1.699 -0.6528  0.0575  0.1850
11542SOL    HW236068   5.724   1.375   1.813  0.0803 -0.3848  0.9480
11543SOL     OW36069   6.663   7.409   4.915 -0.4625  0.1026 -0.2229
11543SOL    HW136070   6.667   7.475   4.985  0.8860  0.5473 -0.7063
11543SOL    HW236071   6.647   7.459   4.835 -0.5670 -0.2792 -0.4451
11544SOL     OW36072   4.815   2.586   8.355 -0.7440 -0.2336  0.0734
11544SOL    HW136073   4.890   2.550   8.401 -1.6194  0.2850  1.9968
11544SOL    HW236074   4.810   2.537   8.273  1.1398 -0.8722  0.3179
11545SOL     OW36075   0.781   1.844  11.950 -0.4452  0.1739 -0.1098
11545SOL    HW136076   0.791   1.939  11.941 -0.5978  0.2984  0.9619
11545SOL    HW236077   0.870   1.812  11.966 -0.3637  0.0965 -0.6642
11546SOL     OW36078   6.913   2.821   8.091 -0.6209 -0.2593  0.2066
11546SOL    HW136079   6.979   2.820   8.159 -0.2140 -0.3464 -0.1841
11546SOL    HW236080   6.929   2.741   8.040  0.0363  0.5548 -0.8908
11547SOL     OW36081   4.787   4.496   5.216  0.5201 -0.0529 -0.0134
11547SOL    HW136082   4.697   4.529   5.222  0.3704  0.3776 -3.0122
11547SOL    HW236083   4.833   4.538   5.288 -1.1392  1.6706  0.1330
11548SOL     OW36084   7.830   5.454   1.838 -0.0989  0.0178 -0.0772
11548SOL    HW136085   7.813   5.381   1.898  0.5718  0.2809  0.4423
11548SOL    HW236086   7.919   5.438   1.805  0.1555  0.7365  0.2427
11549SOL     OW36087   6.468   6.347   8.494  0.1320  0.1501 -0.2789
11549SOL    HW136088   6.543   6.295   8.520 -0.1675 -1.4976 -2.3993
11549SOL    HW236089   6.395   6.285   8.494 -1.0427  1.4684  0.7245
11550SOL     OW36090   4.163   7.947   7.864  0.1724  0.2520  0.0401
11550SOL    HW136091   4.164   7.993   7.947  2.2007  1.6553 -0.6859
11550SOL    HW236092   4.153   8.015   7.798 -1.9063 -0.8722 -0.9089
11551SOL     OW36093   1.831   6.885   2.014  0.7826  0.3541 -0.1383
11551SOL    HW136094   1.858   6.901   2.105  0.4940  2.7114 -0.3955
11551SOL    HW236095   1.885   6.811   1.986  1.1583 -0.1806  1.8134
11552SOL     OW36096   4.061   1.386   7.272 -0.0568 -0.0261  0.1388
11552SOL    HW136097   4.143   1.382   7.322 -0.2100 -0.9875  0.3267
11552SOL    HW236098   4.089   1.401   7.182  0.3726 -1.0771  0.0863
11553SOL     OW36099   5.431   0.696  11.025 -0.0757  0.2327 -0.0558
11553SOL    HW136100   5.484   0.632  11.071  0.2646  0.4647 -0.1237
11553SOL    HW236101   5.491   0.769  11.007 -0.2878  0.2815 -0.5771
11554SOL     OW36102   5.344   5.352   0.300  0.3963  0.0958 -0.5834
11554SOL    HW136103   5.357   5.363   0.205  2.8757 -0.6267 -0.4064
11554SOL    HW236104   5.369   5.261   0.317 -1.6513 -0.3017  0.5816
11555SOL     OW36105   5.893   7.923   8.355 -0.0549 -0.4770 -0.4064
11555SOL    HW136106   5.920   7.957   8.440 -0.6738 -0.3037 -0.2780
11555SOL    HW236107   5.936   7.980   8.291 -1.5864  0.9555 -0.1966
11556SOL     OW36108   4.434   1.501   5.951 -0.9971  0.2128 -0.9149
11556SOL    HW136109   4.497   1.568   5.976 -0.8178 -0.1034 -0.5103
11556SOL    HW236110   4.452   1.485   5.858  0.1989 -0.5785 -0.5802
11557SOL     OW36111   1.123   5.819   4.613  0.1721  0.3534 -0.1003
11557SOL    HW136112   1.192   5.881   4.638 -0.2983  0.7390  0.2415
11557SOL    HW236113   1.154   5.782   4.530  1.4945 -0.5413  0.7436
11558SOL     OW36114   2.051   2.926   0.734  0.7851  0.1299  0.3815
11558SOL    HW136115   2.100   2.985   0.677 -0.4602  0.7168 -0.1081
11558SOL    HW236116   2.084   2.945   0.822  0.2766  1.6921  0.2512
11559SOL     OW36117   2.088   6.030  12.309 -0.3458  0.4639 -0.6564
11559SOL    HW136118   1.993   6.042  12.304 -0.1552  2.2256 -0.4127
11559SOL    HW236119   2.111   6.058  12.398  0.7199  2.5993 -1.5414
11560SOL     OW36120   7.250   0.612   5.664 -0.4281  0.7486 -0.1415
11560SOL    HW136121   7.213   0.634   5.578  0.4702 -2.8690 -1.6684
11560SOL    HW236122   7.345   0.621   5.651 -0.0937 -2.1322 -0.4934
11561SOL     OW36123   3.770   7.648  12.123  0.0128  0.2981  0.1633
11561SOL    HW136124   3.849   7.628  12.073  1.1416 -0.6676  2.1807
11561SOL    HW236125   3.721   7.565  12.123  0.4007  0.0467  1.2197
11562SOL     OW36126   3.508   7.943  11.753 -0.1506  0.0164  0.8857
11562SOL    HW136127   3.505   7.899  11.837 -1.3227 -0.5059  0.5965
11562SOL    HW236128   3.585   7.906  11.709 -0.7821 -1.3369  0.8741
11563SOL     OW36129   0.565   2.687   1.510 -0.0408  0.3772 -0.2010
11563SOL    HW136130   0.522   2.772   1.505 -0.5469  0.1095 -0.4929
11563SOL    HW236131   0.650   2.705   1.551 -0.3792  0.9294  0.2645
11564SOL     OW36132   1.426   3.796   4.244 -0.0888  0.2008  0.5466
11564SOL    HW136133   1.358   3.808   4.310 -1.1085  1.1999 -0.6340
11564SOL    HW236134   1.397   3.722   4.191  0.1881  0.0755  0.5669
11565SOL     OW36135   2.274   2.935   5.704 -0.4699 -0.4400  0.4204
11565SOL    HW136136   2.190   2.979   5.719  0.7007  1.8909  0.6357
11565SOL    HW236137   2.286   2.879   5.781 -2.1458 -1.4148  0.0172
11566SOL     OW36138   6.503   1.658   5.740 -0.2703 -0.2827  0.5557
11566SOL    HW136139   6.545   1.736   5.778 -0.4230 -1.1043  2.5147
11566SOL    HW236140   6.461   1.615   5.814 -1.4722 -1.4460 -0.7553
11567SOL     OW36141   4.964   4.066   6.119 -0.1016  0.0460  0.6197
11567SOL    HW136142   4.919   4.122   6.056  1.3628 -1.8568 -2.3441
11567SOL    HW236143   4.991   4.125   6.189 -0.7558  2.5743 -1.1292
11568SOL     OW36144   6.822   2.936   4.716  0.0404 -0.2630 -0.1203
11568SOL    HW136145   6.819   3.004   4.649  1.1471 -1.7143 -1.7544
11568SOL    HW236146   6.784   2.976   4.794 -0.0935  1.9232 -1.2446
11569SOL     OW36147   5.422   6.025   0.027 -0.3267  0.1172  0.2499
11569SOL    HW136148   5.410   6.117   0.005  0.7689  0.5401  1.3630
11569SOL    HW236149   5.372   5.978  -0.040  1.4826  1.3964 -2.1451
11570SOL     OW36150   1.180   2.479   4.746  0.2256 -0.4467  0.2433
11570SOL    HW136151   1.096   2.435   4.743  0.0940 -0.1442 -0.6941
11570SOL    HW236152   1.245   2.409   4.754 -0.0231 -0.7750 -0.5544
11571SOL     OW36153   5.945   3.486   2.387 -0.4512 -0.1102 -0.0545
11571SOL    HW136154   5.942   3.544   2.310 -1.7047  1.0946  0.8589
11571SOL    HW236155   5.913   3.540   2.459  1.7658 -0.8430  1.6032
11572SOL     OW36156   0.600   5.116   2.865  0.7732 -0.1882 -0.0020
11572SOL    HW136157   0.670   5.172   2.899  0.6952 -0.5831  0.8446
11572SOL    HW236158   0.571   5.065   2.941 -2.6872  2.2517  0.5777
11573SOL     OW36159   3.154   4.428   6.023 -0.2817  0.0392  0.2910
11573SOL    HW136160   3.069   4.417   6.067 -0.0487  0.1662  0.7777
11573SOL    HW236161   3.185   4.514   6.051  0.3259 -0.2975  0.6671
11574SOL     OW36162   7.522   3.991   0.008  0.4320 -0.5364 -0.7052
11574SOL    HW136163   7.445   4.021   0.057  1.5022  0.9851  0.1535
11574SOL    HW236164   7.584   4.063   0.017  2.3746 -2.1800 -0.4069
11575SOL     OW36165   5.452   7.737   7.344 -0.1806 -0.2535 -0.0823
11575SOL    HW136166   5.512   7.798   7.388  1.8794 -1.5533 -0.9445
11575SOL    HW236167   5.408   7.691   7.416 -0.4189  0.9561  0.5722
11576SOL     OW36168   6.089   2.879   3.443 -0.0210 -0.2537 -0.9256
11576SOL    HW136169   6.057   2.890   3.354 -1.5304 -3.4920 -0.8860
11576SOL    HW236170   6.175   2.838   3.433  0.6653  1.0777 -0.8416
11577SOL     OW36171   1.070   1.092   2.271 -0.0924  0.1533  0.3338
11577SOL    HW136172   1.054   1.181   2.305 -0.9760 -0.2114  0.9165
11577SOL    HW236173   0.998   1.076   2.211 -0.9031 -0.7787  1.4941
11578SOL     OW36174   2.821   0.833   3.325 -0.0254 -0.2238  0.2145
11578SOL    HW136175   2.903   0.799   3.288 -0.6843  0.9575 -2.5481
11578SOL    HW236176   2.847   0.876   3.406  1.8889 -0.8625 -0.0133
11579SOL     OW36177   7.614   4.368   6.255  0.1227  0.2602  0.0910
11579SOL    HW136178   7.608   4.428   6.329  0.8059 -0.7037  0.9588
11579SOL    HW236179   7.651   4.420   6.185 -1.5772  1.5062  0.0383
11580SOL     OW36180   7.453   3.861   5.786  0.5258  0.6797 -0.3969
11580SOL    HW136181   7.481   3.908   5.865  2.6825 -1.7293  0.3987
11580SOL    HW236182   7.468   3.924   5.715  0.9440  2.0400  0.8379
11581SOL     OW36183   7.599   0.415   6.598 -0.2252 -0.1275 -0.4749
11581SOL    HW136184   7.557   0.487   6.644 -1.2795 -0.4885 -0.8563
11581SOL    HW236185   7.589   0.340   6.656 -0.5954 -0.3340 -0.7976
11582SOL     OW36186   5.085   2.613   4.446 -0.3120 -0.1756  0.1025
11582SOL    HW136187   5.080   2.535   4.502 -1.1542 -0.3884 -0.2492
11582SOL    HW236188   5.073   2.580   4.357  0.3618  0.2406 -0.1493
11583SOL     OW36189   2.370   6.801   3.195  0.5773 -0.6311 -0.4638
11583SOL    HW136190   2.281   6.814   3.230  1.1111 -1.0898  1.1929
11583SOL    HW236191   2.426   6.855   3.251  1.2554  0.4924 -2.1627
11584SOL     OW36192   6.335   1.481   8.957  0.0975 -0.1019  0.6805
11584SOL    HW136193   6.349   1.386   8.949  1.8749  0.2420 -1.1207
11584SOL    HW236194   6.281   1.504   8.882 -1.2148  0.2086  1.6854
11585SOL     OW36195   0.044   2.584  10.952  0.0340 -0.5444  0.2794
11585SOL    HW136196  -0.023   2.538  10.902  0.3518 -0.6839 -0.0230
11585SOL    HW236197   0.086   2.641  10.887  1.0123 -1.3393  0.1909
11586SOL     OW36198   2.921   7.207   4.719 -0.1439  0.0190 -0.1730
11586SOL    HW136199   2.865   7.170   4.787  0.8051  1.3871  1.4574
11586SOL    HW236200   2.882   7.179   4.637 -2.1622 -0.5589  0.9198
11587SOL     OW36201   6.082   4.640   5.199  0.1843 -0.6239 -0.3767
11587SOL    HW136202   6.011   4.599   5.150  0.6401  0.4674 -2.0417
11587SOL    HW236203   6.038   4.697   5.262 -0.5282  1.2360 -2.4095
11588SOL     OW36204   0.829   4.183   2.037 -0.1266  0.2556  0.4394
11588SOL    HW136205   0.856   4.152   1.951  0.7469 -0.9212  1.1080
11588SOL    HW236206   0.735   4.195   2.030 -0.4039 -1.8353 -0.1033
11589SOL     OW36207   5.654   4.080   2.418 -0.2775  0.1477 -0.0744
11589SOL    HW136208   5.647   4.103   2.511 -2.0629  0.7102 -0.3115
11589SOL    HW236209   5.677   4.162   2.374  0.6168 -0.1283 -0.1430
11590SOL     OW36210   2.471   3.773   5.829  0.6887 -0.0659  0.1153
11590SOL    HW136211   2.433   3.686   5.843 -1.1650  0.6068 -0.4794
11590SOL    HW236212   2.550   3.757   5.777 -0.4212 -1.2869 -1.2675
11591SOL     OW36213   0.992   1.045  10.168  0.3079 -0.6098 -0.1229
11591SOL    HW136214   0.966   1.120  10.222 -0.8626 -1.1128  0.0498
11591SOL    HW236215   0.929   0.976  10.190  0.7218 -1.3138 -1.0369
11592SOL     OW36216   0.504   7.359   1.463 -0.0462 -0.1906 -0.1177
11592SOL    HW136217   0.559   7.325   1.534 -0.3168 -0.0448  0.1636
11592SOL    HW236218   0.502   7.453   1.477  0.6380 -0.0618 -0.8543
11593SOL     OW36219   1.516   7.447  12.375 -0.8931  0.4833  0.0761
11593SOL    HW136220   1.509   7.352  12.369 -0.0510  0.4931 -2.3860
11593SOL    HW236221   1.474   7.469  12.458 -2.5312 -1.8736 -0.0141
11594SOL     OW36222   7.069   0.817   0.399 -0.3312  0.4156  0.7709
11594SOL    HW136223   6.994   0.765   0.427  0.4979 -0.9725  0.5419
11594SOL    HW236224   7.142   0.784   0.452  0.7769 -0.6265 -1.2868
11595SOL     OW36225   7.913   0.526  11.804  0.3238  0.1958  0.8606
11595SOL    HW136226   7.928   0.490  11.892  1.9279  3.0123  1.8735
11595SOL    HW236227   7.997   0.563  11.779 -0.8922  2.2147 -0.5083
11596SOL     OW36228   1.243   5.802   9.957  0.6453  0.3801  0.0448
11596SOL    HW136229   1.209   5.821   9.869 -3.7443  1.7469  1.7606
11596SOL    HW236230   1.283   5.885   9.985  2.3108 -0.1436 -0.6930
11597SOL     OW36231   7.424   1.407   9.212 -0.3926  0.2575  0.0083
11597SOL    HW136232   7.439   1.368   9.127  1.6732  1.0211 -0.0398
11597SOL    HW236233   7.453   1.498   9.202  1.5407 -0.0699  1.9289
11598SOL     OW36234   3.004   2.176  10.153  0.1414  0.2059 -0.4157
11598SOL    HW136235   3.018   2.241  10.221 -0.4357 -0.1816  0.0820
11598SOL    HW236236   3.093   2.148  10.129  0.3674  0.7219 -0.2005
11599SOL     OW36237   4.987   2.214   2.100 -0.0684  0.1939 -0.6576
11599SOL    HW136238   5.076   2.179   2.097 -0.0936  0.1060 -0.3985
11599SOL    HW236239   4.996   2.300   2.139 -0.1607 -0.0248 -0.1491
11600SOL     OW36240   5.300   6.831  10.354  0.5625  0.1171  0.5626
11600SOL    HW136241   5.244   6.902  10.324  0.9568  0.5023  0.7156
11600SOL    HW236242   5.262   6.752  10.317  1.3112  0.6158 -1.4090
11601SOL     OW36243   1.333   0.565   4.567  0.3235  0.4030  0.2063
11601SOL    HW136244   1.313   0.544   4.476  0.9627 -0.7520  0.3068
11601SOL    HW236245   1.401   0.501   4.592 -0.2861  0.2829  1.6673
11602SOL     OW36246   1.731   5.252   2.315 -0.0575 -0.1710 -0.2167
11602SOL    HW136247   1.743   5.267   2.409 -0.5496 -3.3993  0.4915
11602SOL    HW236248   1.636   5.243   2.304  0.1183 -3.5768 -0.1567
11603SOL     OW36249   5.917   6.572   8.148  0.2362 -0.3144  0.0982
11603SOL    HW136250   5.960   6.576   8.233 -0.8393 -1.1730  0.7116
11603SOL    HW236251   5.858   6.647   8.147 -0.7053 -1.0181  0.6807
11604SOL     OW36252   0.034   0.201   7.098  0.2467  0.5892 -0.6316
11604SOL    HW136253   0.051   0.199   7.192  0.2111  1.7136 -0.5864
11604SOL    HW236254   0.097   0.140   7.060 -0.3622 -0.5980  0.1993
11605SOL     OW36255   2.857   6.820   1.024 -0.0417  0.2509  0.0710
11605SOL    HW136256   2.917   6.768   1.077  0.6854  1.4917  0.4877
11605SOL    HW236257   2.912   6.883   0.979 -0.8837  0.5044 -0.6324
11606SOL     OW36258   6.424   4.969   8.358  0.0949  0.4317 -0.3677
11606SOL    HW136259   6.357   4.908   8.328 -0.4637  1.0506 -0.4043
11606SOL    HW236260   6.429   5.035   8.289  0.4976  0.5831 -0.2000
11607SOL     OW36261   1.737   6.353   9.775  0.0135  0.7437  0.2398
11607SOL    HW136262   1.801   6.289   9.806  0.7885  0.9039 -0.9474
11607SOL    HW236263   1.702   6.393   9.855  0.8118  0.0855  0.9357
11608SOL     OW36264   5.610   6.561   4.315 -0.3065 -1.0955  0.3038
11608SOL    HW136265   5.681   6.554   4.251 -0.7738 -0.5640 -0.2778
11608SOL    HW236266   5.625   6.645   4.358 -0.5056 -1.0543  0.2906
11609SOL     OW36267   3.231   6.277  10.793  0.6447 -0.3237 -0.8756
11609SOL    HW136268   3.137   6.277  10.812  1.1197 -0.2149  1.9165
11609SOL    HW236269   3.261   6.191  10.824  1.6879  0.2639 -0.1928
11610SOL     OW36270   2.154   4.700  10.636  0.6371 -0.3385  0.2103
11610SOL    HW136271   2.098   4.727  10.709  0.2714  0.6442 -0.4178
11610SOL    HW236272   2.128   4.609  10.620 -0.1160 -0.1951  0.5478
11611SOL     OW36273   4.113   0.488  12.228 -0.3172  0.2887 -0.2283
11611SOL    HW136274   4.065   0.456  12.304  2.2784 -0.4972  1.2197
11611SOL    HW236275   4.130   0.410  12.175  0.5108  0.2968  0.0041
11612SOL     OW36276   2.549   1.071   8.677  0.0091  0.2980  0.0073
11612SOL    HW136277   2.485   1.023   8.623 -2.0624  1.4105  1.3314
11612SOL    HW236278   2.582   1.139   8.619 -1.3952  0.8210 -0.2289
11613SOL     OW36279   5.653   1.222   6.024  0.1046  0.1656 -0.7114
11613SOL    HW136280   5.704   1.153   5.982  0.2668 -0.3793  0.3629
11613SOL    HW236281   5.607   1.178   6.096 -0.5343  0.9877 -0.5976
11614SOL     OW36282   4.442   6.276  12.257  0.1934  0.3417  0.1602
11614SOL    HW136283   4.360   6.230  12.241  0.0408  0.6142  0.1446
11614SOL    HW236284   4.484   6.227  12.328  1.0288 -1.0724 -1.2392
11615SOL     OW36285   3.899   4.516  11.228 -0.2157 -0.2683 -0.0726
11615SOL    HW136286   3.988   4.497  11.199  0.5493 -0.4185  2.1267
11615SOL    HW236287   3.844   4.452  11.183  0.9794 -1.0862 -0.4104
11616SOL     OW36288   6.223   3.953   3.677 -0.1001 -0.0524 -0.4523
11616SOL    HW136289   6.253   3.902   3.601  0.4047  0.3218 -0.5073
11616SOL    HW236290   6.164   3.894   3.723 -0.9532 -0.0646 -1.4989
11617SOL     OW36291   2.175   5.081  10.362 -0.1452  0.2437  0.1377
11617SOL    HW136292   2.218   5.008  10.406  2.9807  2.5847  1.2942
11617SOL    HW236293   2.096   5.098  10.414  0.6526 -0.4164  1.6184
11618SOL     OW36294   4.097   4.164   5.785  0.3218  0.0534 -0.0249
11618SOL    HW136295   4.066   4.240   5.835 -1.4134 -0.5793 -0.0766
11618SOL    HW236296   4.192   4.168   5.792  0.1821  0.8302  2.0633
11619SOL     OW36297   6.931   4.992   1.297  0.4003  0.2142  0.5879
11619SOL    HW136298   6.922   4.898   1.315 -1.7414  0.3792  0.5896
11619SOL    HW236299   6.922   5.034   1.383  0.5062  0.4642  0.4785
11620SOL     OW36300   0.794   5.523   4.192 -0.5335  0.0148  0.3313
11620SOL    HW136301   0.714   5.574   4.204  0.7691  2.4846 -0.8078
11620SOL    HW236302   0.764   5.434   4.176 -3.0145  0.7562  0.5284
11621SOL     OW36303   5.821   6.696   0.475 -0.5519  0.9001  0.1309
11621SOL    HW136304   5.902   6.720   0.521  0.2146  0.8573 -1.1546
11621SOL    HW236305   5.848   6.630   0.412 -1.7702  0.2436  0.2673
11622SOL     OW36306   2.018   5.716  12.231  0.3899  0.5666  0.0728
11622SOL    HW136307   2.016   5.752  12.319  0.3187  0.3782  0.1480
11622SOL    HW236308   2.006   5.793  12.174  0.2065  0.6583  0.2326
11623SOL     OW36309   0.568   5.869   3.997 -0.5336  0.3667  0.3188
11623SOL    HW136310   0.529   5.809   4.061 -0.8498  0.1339 -0.0843
11623SOL    HW236311   0.643   5.908   4.043 -0.2940 -0.3715  0.5690
11624SOL     OW36312   2.390   6.452   7.599  0.2773 -0.0790  0.4091
11624SOL    HW136313   2.472   6.415   7.630  1.3216  0.2561 -1.7430
11624SOL    HW236314   2.399   6.546   7.613  1.0539  0.1548 -1.4045
11625SOL     OW36315   5.773   0.390   9.731 -0.2021 -0.7387 -0.4993
11625SOL    HW136316   5.748   0.304   9.764 -0.8299 -0.1716  0.5910
11625SOL    HW236317   5.755   0.387   9.637 -1.2197 -1.4558 -0.2961
11626SOL     OW36318   2.647   0.915  10.948  0.5328  0.1801 -0.5576
11626SOL    HW136319   2.579   0.851  10.967  0.8219 -0.1407 -0.6011
11626SOL    HW236320   2.694   0.879  10.873  0.9747  0.2285 -0.3092
11627SOL     OW36321   2.704   0.812   3.708 -0.4814 -0.7159 -0.6111
11627SOL    HW136322   2.656   0.782   3.631 -0.0348  0.3885 -1.3444
11627SOL    HW236323   2.781   0.856   3.673 -0.5533  0.3091  0.4311
11628SOL     OW36324   7.874   5.864   6.265  0.4033  0.3665 -1.0287
11628SOL    HW136325   7.897   5.775   6.292  0.1930  0.3338 -0.9507
11628SOL    HW236326   7.817   5.896   6.336 -0.2665  0.2287 -1.4928
11629SOL     OW36327   0.920   0.894   4.800  0.3714 -0.5584  0.0361
11629SOL    HW136328   0.902   0.973   4.748 -2.0244 -0.5093  0.8313
11629SOL    HW236329   1.005   0.910   4.840 -0.7110  2.3714  1.4323
11630SOL     OW36330   0.217   6.811  11.693  0.0567 -0.2399 -0.0675
11630SOL    HW136331   0.282   6.766  11.746  0.2072  0.4415  0.3388
11630SOL    HW236332   0.268   6.860  11.629 -0.1392 -1.5411 -1.2734
11631SOL     OW36333   1.534   2.214   1.203  0.1111 -0.2210  0.0961
11631SOL    HW136334   1.584   2.273   1.146 -0.0244 -0.2723 -0.0756
11631SOL    HW236335   1.486   2.273   1.261  1.0411 -0.1815  0.8438
11632SOL     OW36336   6.854   4.428   8.837  0.3444 -0.0019 -0.3101
11632SOL    HW136337   6.907   4.388   8.769  0.8212 -1.0450  0.6385
11632SOL    HW236338   6.855   4.521   8.818  1.2434 -0.1874 -1.1813
11633SOL     OW36339   1.697   2.078   7.285  0.3919  0.2435  0.1569
11633SOL    HW136340   1.625   2.098   7.345 -0.7828  2.0506 -1.7314
11633SOL    HW236341   1.773   2.123   7.323  0.0956 -0.0789  1.1614
11634SOL     OW36342   3.303   3.366   4.309  0.3903  0.4436  0.0440
11634SOL    HW136343   3.371   3.335   4.250  0.4424 -1.2868  0.9567
11634SOL    HW236344   3.225   3.375   4.255  0.7935  0.2787 -0.5675
11635SOL     OW36345   2.174   6.162   2.963 -0.3270 -0.0394 -0.8094
11635SOL    HW136346   2.117   6.086   2.976  1.2600 -0.9571  1.4825
11635SOL    HW236347   2.156   6.218   3.038  0.4891  0.5099 -1.0123
11636SOL     OW36348   0.364   2.994  12.222  0.6101 -0.2754  0.4951
11636SOL    HW136349   0.287   2.938  12.212  0.9186 -0.9080  1.5545
11636SOL    HW236350   0.362   3.052  12.145 -0.3860 -0.9218  0.0214
11637SOL     OW36351   5.253   7.788   7.188  0.5263 -0.6017  0.1859
11637SOL    HW136352   5.327   7.768   7.245 -0.9773 -0.6292  2.2435
11637SOL    HW236353   5.216   7.869   7.223 -0.2820 -0.4527 -0.9404
11638SOL     OW36354   4.223   0.708   5.472  0.1326  0.6663  0.2991
11638SOL    HW136355   4.206   0.613   5.476 -1.3618  0.9396  1.4402
11638SOL    HW236356   4.207   0.731   5.380 -5.5216  0.7159  0.9377
11639SOL     OW36357   5.954   2.570   4.372  0.4645 -0.5667 -0.3271
11639SOL    HW136358   5.937   2.663   4.354 -1.1483 -0.6289  0.7121
11639SOL    HW236359   6.034   2.570   4.425  1.3049  0.0857 -1.5276
11640SOL     OW36360   4.007   1.526   0.952  0.3513  0.2618 -0.2691
11640SOL    HW136361   3.913   1.504   0.949  0.7386 -1.7404  0.5831
11640SOL    HW236362   4.012   1.599   1.014 -0.5644 -0.0615  0.2097
11641SOL     OW36363   5.103   3.707  11.072 -0.2765 -0.2754 -0.1523
11641SOL    HW136364   5.013   3.700  11.041 -0.0805  1.0684 -1.1035
11641SOL    HW236365   5.143   3.773  11.016  0.5497  1.1271  1.9541
11642SOL     OW36366   1.267   3.239   9.645  0.3499 -0.5878  0.1218
11642SOL    HW136367   1.310   3.311   9.691  1.0121 -1.6018  1.1399
11642SOL    HW236368   1.198   3.281   9.594  1.2597  0.8625  0.0197
11643SOL     OW36369   1.432   6.571  10.060  0.0610 -0.7621  0.7600
11643SOL    HW136370   1.416   6.650  10.007  2.2859 -2.0863 -2.1571
11643SOL    HW236371   1.345   6.545  10.090 -1.4334  0.0677 -2.4259
11644SOL     OW36372   4.189   3.022   0.575  0.0950 -0.2884  0.0324
11644SOL    HW136373   4.138   2.943   0.593  0.0638 -0.4514 -0.7408
11644SOL    HW236374   4.270   3.011   0.625  0.5740 -1.3344 -0.9431
11645SOL     OW36375   3.808   2.423   0.005 -0.0275  0.4759  1.1841
11645SOL    HW136376   3.806   2.471  -0.078 -1.5576 -0.6962  0.5099
11645SOL    HW236377   3.717   2.420   0.034  0.2322 -0.7752  1.9329
11646SOL     OW36378   6.214   5.792   6.605  0.1196 -0.6474 -0.4642
11646SOL    HW136379   6.202   5.729   6.534  1.3712  0.7947 -2.0285
11646SOL    HW236380   6.203   5.877   6.563  0.5707  0.2359  1.1515
11647SOL     OW36381   3.274   1.881   4.024 -0.0288  0.6984  0.0705
11647SOL    HW136382   3.219   1.839   3.959  0.3727  0.7726 -0.3198
11647SOL    HW236383   3.306   1.809   4.078 -0.3506  0.6355  0.1805
11648SOL     OW36384   5.978   7.287  11.489  0.2460  0.0819 -0.1289
11648SOL    HW136385   5.907   7.255  11.434  0.1913 -0.4179  0.2222
11648SOL    HW236386   6.057   7.274  11.436  0.1001  0.4748 -0.4485
11649SOL     OW36387   7.166   7.438   9.353 -0.3254  0.4267  0.1413
11649SOL    HW136388   7.172   7.414   9.445 -0.3863 -1.3164 -0.2761
11649SOL    HW236389   7.072   7.441   9.336 -0.3063 -0.3158 -0.1139
11650SOL     OW36390   1.920   2.800   4.319  0.1239 -0.1639 -0.3531
11650SOL    HW136391   1.921   2.705   4.310  0.3315 -0.4847  2.3421
11650SOL    HW236392   1.834   2.820   4.357  0.7001  0.5064  0.6553
11651SOL     OW36393   7.296   1.031   9.768  0.6982 -0.2232  0.4478
11651SOL    HW136394   7.270   0.944   9.739 -1.5454  0.6968 -0.5530
11651SOL    HW236395   7.381   1.046   9.726 -0.0411 -0.9950 -1.4395
11652SOL     OW36396   3.863   5.788   9.624  0.4035 -0.0511 -0.6663
11652SOL    HW136397   3.821   5.753   9.546  1.6176 -0.8446 -1.0020
11652SOL    HW236398   3.919   5.859   9.591  0.5170 -0.0373 -0.4442
11653SOL     OW36399   2.294   0.657  11.778 -0.3567 -0.3048 -0.0292
11653SOL    HW136400   2.327   0.583  11.828  1.1847 -0.8937 -1.8374
11653SOL    HW236401   2.351   0.730  11.802 -1.3076  0.1349  1.0492
11654SOL     OW36402   1.092   6.486   4.744  0.1988  0.4974  0.0603
11654SOL    HW136403   1.176   6.507   4.705  1.2006  2.8914  3.0286
11654SOL    HW236404   1.095   6.392   4.760  1.1555  0.0873 -2.1808
11655SOL     OW36405   3.294   5.334   9.590 -0.0930 -0.3070 -0.0400
11655SOL    HW136406   3.309   5.425   9.617 -0.9554  0.7674 -2.7481
11655SOL    HW236407   3.379   5.292   9.599  0.7099  1.2092 -0.1701
11656SOL     OW36408   1.375   2.831   8.225 -0.1912 -0.3473  0.2892
11656SOL    HW136409   1.313   2.897   8.192  1.2912  1.2236  0.4942
11656SOL    HW236410   1.449   2.837   8.165 -0.2460 -2.2914 -0.0252
11657SOL     OW36411   5.593   6.330   0.958 -0.8263 -0.6829 -0.2730
11657SOL    HW136412   5.675   6.365   0.993 -2.1316 -0.0470  2.4312
11657SOL    HW236413   5.617   6.290   0.875  2.2899 -0.8486  0.5855
11658SOL     OW36414   1.322   6.293   5.810  0.3602  0.1915  0.2802
11658SOL    HW136415   1.228   6.282   5.822  0.3833  1.1562  1.4823
11658SOL    HW236416   1.339   6.385   5.832  1.0958  1.0433 -3.1747
11659SOL     OW36417   2.856   3.548   5.993  0.0761 -0.6376  0.9309
11659SOL    HW136418   2.941   3.588   5.970 -1.1764  1.1481 -0.9647
11659SOL    HW236419   2.802   3.561   5.915 -1.6512 -2.7049  1.7002
11660SOL     OW36420   6.149   2.871   1.615 -0.0537  1.2335 -0.0133
11660SOL    HW136421   6.181   2.838   1.699 -1.8988  1.0709  0.6931
11660SOL    HW236422   6.218   2.929   1.583  2.0284 -1.0545  0.0910
11661SOL     OW36423   3.404   4.091   6.699  0.1531  0.6030  0.2776
11661SOL    HW136424   3.389   3.997   6.689  0.3012  0.5761  0.3127
11661SOL    HW236425   3.317   4.127   6.717 -0.3386  0.7908 -2.1377
11662SOL     OW36426   5.478   4.398   4.040  0.3024 -0.7170 -0.5443
11662SOL    HW136427   5.441   4.320   4.080  0.0637 -0.1500  0.3505
11662SOL    HW236428   5.403   4.455   4.023  0.7035  0.4096  1.2252
11663SOL     OW36429   4.260   4.729   4.621  0.3743 -0.0591  0.2748
11663SOL    HW136430   4.227   4.645   4.653 -0.1523 -0.7384 -1.8760
11663SOL    HW236431   4.355   4.723   4.634  0.2537 -0.5886  0.9913
11664SOL     OW36432   5.332   0.826   7.770  0.3046 -0.4491 -0.1194
11664SOL    HW136433   5.241   0.798   7.778 -0.1613  0.4118 -1.9283
11664SOL    HW236434   5.349   0.878   7.848 -0.6840 -0.8235  0.3489
11665SOL     OW36435   2.245   6.859  12.294 -0.0414 -0.0752  0.0780
11665SOL    HW136436   2.256   6.876  12.200  1.7804 -1.9072 -0.1208
11665SOL    HW236437   2.333   6.872  12.331 -0.5301 -0.2990  1.3665
11666SOL     OW36438   7.736   6.657   9.584 -0.2310  0.6853 -0.6767
11666SOL    HW136439   7.797   6.722   9.619 -1.8265  1.6080  0.5088
11666SOL    HW236440   7.689   6.703   9.515 -0.3553  0.3350 -0.8276
11667SOL     OW36441   1.651   1.546   7.208  0.3894  0.0512 -0.0229
11667SOL    HW136442   1.693   1.519   7.290  2.7547 -0.7028 -1.4044
11667SOL    HW236443   1.697   1.626   7.183  0.9060 -0.6658 -1.4605
11668SOL     OW36444   2.501   1.838   4.584 -0.7433  0.0705  0.2267
11668SOL    HW136445   2.549   1.918   4.606  0.8681 -0.8737  0.2641
11668SOL    HW236446   2.514   1.781   4.659  0.2331 -1.1582 -0.8519
11669SOL     OW36447   1.702   4.622   5.135  0.4269 -0.1198 -0.4977
11669SOL    HW136448   1.763   4.557   5.170 -0.1668 -0.8169 -0.7237
11669SOL    HW236449   1.692   4.597   5.043  0.0561  0.1872 -0.5390
11670SOL     OW36450   2.525   5.444   1.398 -0.3373 -0.2506 -0.5601
11670SOL    HW136451   2.609   5.459   1.355 -0.8761  0.0587 -1.5434
11670SOL    HW236452   2.496   5.531   1.424  0.3635 -0.5181  1.2069
11671SOL     OW36453   5.357   6.206  10.601  0.2212 -0.1405  0.0112
11671SOL    HW136454   5.281   6.153  10.580  0.5504 -0.4147 -0.5023
11671SOL    HW236455   5.430   6.164  10.554  0.3235  1.3089 -1.2010
11672SOL     OW36456   3.521   7.735   7.532 -0.3637  0.1475 -0.0951
11672SOL    HW136457   3.584   7.677   7.574  0.2059  2.2805  2.2389
11672SOL    HW236458   3.536   7.724   7.438  0.7304 -2.2854  0.3091
11673SOL     OW36459   3.401   7.563   1.400 -0.1528  0.6116  0.4686
11673SOL    HW136460   3.364   7.651   1.408  0.7885  1.0586  0.0443
11673SOL    HW236461   3.384   7.523   1.485 -0.1958  1.3601  0.8251
11674SOL     OW36462   4.984   1.441  12.072 -0.1685  0.3037 -0.0952
11674SOL    HW136463   4.926   1.369  12.098 -0.5035  0.2872 -0.8811
11674SOL    HW236464   4.935   1.488  12.004  1.2322 -0.4111 -1.6452
11675SOL     OW36465   2.765   4.026   9.671 -0.0405  0.1666 -0.6978
11675SOL    HW136466   2.712   4.105   9.668 -0.5650 -0.1892 -0.9831
11675SOL    HW236467   2.718   3.968   9.731 -0.8735 -0.7775 -2.2070
11676SOL     OW36468   0.915   5.733   2.174  0.4410 -0.1974  0.1720
11676SOL    HW136469   0.921   5.639   2.155  1.1514 -0.5251  1.7886
11676SOL    HW236470   1.006   5.762   2.179  0.2378  0.4032  0.4593
11677SOL     OW36471   7.891   2.446   4.500  0.0788  0.1944 -0.3597
11677SOL    HW136472   7.878   2.516   4.436 -0.1921  0.6508  0.1888
11677SOL    HW236473   7.807   2.400   4.503 -0.2909  0.9083  0.5319
11678SOL     OW36474   2.475   3.748   6.101  0.2319  0.6151 -0.3866
11678SOL    HW136475   2.455   3.771   6.010 -1.7809 -0.0202 -0.1496
11678SOL    HW236476   2.538   3.676   6.094  1.5379  1.7870 -1.2155
11679SOL     OW36477   1.245   4.932   3.720 -0.0991  0.1407 -0.8602
11679SOL    HW136478   1.297   4.875   3.776 -1.2198  0.3666  0.4700
11679SOL    HW236479   1.264   5.021   3.752 -1.2765  0.2268 -0.3216
11680SOL     OW36480   6.903   2.157   4.320 -0.1809 -0.7862  0.1640
11680SOL    HW136481   6.987   2.145   4.274 -0.9924 -1.4060 -1.2102
11680SOL    HW236482   6.902   2.249   4.345 -0.6264  0.1970 -3.0419
11681SOL     OW36483   4.357   5.160   1.778 -0.4828 -0.1455  0.1732
11681SOL    HW136484   4.315   5.133   1.860  1.1876 -2.1193  0.4631
11681SOL    HW236485   4.376   5.077   1.734 -0.5469  0.8578 -1.8245
11682SOL     OW36486   1.120   3.500   2.602  0.0376  0.1303 -0.1060
11682SOL    HW136487   1.113   3.594   2.618 -2.2997  0.1359 -0.6666
11682SOL    HW236488   1.125   3.492   2.506 -5.4528 -0.2745 -0.7147
11683SOL     OW36489   4.993   0.146   6.235  0.1846  0.1567 -0.6168
11683SOL    HW136490   5.061   0.079   6.241  1.1634  1.2000  0.9813
11683SOL    HW236491   4.968   0.147   6.143  0.7507 -1.7812 -0.8406
11684SOL     OW36492   4.630   6.281   9.112 -0.1229  0.7334  0.1475
11684SOL    HW136493   4.689   6.296   9.038  2.0969  0.4176  1.7406
11684SOL    HW236494   4.620   6.367   9.152 -3.2153  1.3758 -1.7299
11685SOL     OW36495   2.438   5.104   5.612 -0.5625  0.1180 -0.5803
11685SOL    HW136496   2.466   5.013   5.613  1.1899  0.6115  0.5610
11685SOL    HW236497   2.343   5.100   5.618 -0.5146 -1.6209 -0.4384
11686SOL     OW36498   4.702   6.376   1.961  0.0266 -0.1494  0.4116
11686SOL    HW136499   4.784   6.413   1.929 -0.7046 -1.7282 -3.9720
11686SOL    HW236500   4.716   6.282   1.962 -1.3882 -0.3809  0.7122
11687SOL     OW36501   7.021   2.354   6.050  0.4526  0.1696 -0.4868
11687SOL    HW136502   6.942   2.405   6.066 -1.0700 -2.0977 -0.4164
11687SOL    HW236503   7.023   2.289   6.120  1.6841 -0.6036 -1.1958
11688SOL     OW36504   6.646   7.220   2.449 -0.1614  0.2999  0.4811
11688SOL    HW136505   6.583   7.162   2.407  1.1822 -1.1834  0.4040
11688SOL    HW236506   6.682   7.168   2.521  0.6635  1.2575  0.7764
11689SOL     OW36507   5.572   2.797   4.406  0.5336 -0.0077 -0.0823
11689SOL    HW136508   5.493   2.840   4.440  0.6602 -0.9138  1.4364
11689SOL    HW236509   5.540   2.739   4.337 -0.1166 -0.2410  0.4035
11690SOL     OW36510   3.500   2.257  10.453 -0.0379 -0.4145 -0.2293
11690SOL    HW136511   3.528   2.165  10.452  0.2279 -0.3539  0.9796
11690SOL    HW236512   3.521   2.288  10.541  1.9697  1.4647 -1.2635
11691SOL     OW36513   3.579   6.375  11.400 -0.1190 -0.2515  0.7087
11691SOL    HW136514   3.521   6.443  11.364  0.0764  0.6896  2.0721
11691SOL    HW236515   3.563   6.298  11.345  0.1343  1.0565 -1.3207
11692SOL     OW36516   3.162   1.358   6.013  0.3824  0.3260 -0.1327
11692SOL    HW136517   3.159   1.301   6.091  2.7186 -1.9912 -1.5853
11692SOL    HW236518   3.238   1.414   6.028  0.0450  0.7873 -0.1588
11693SOL     OW36519   5.153   1.973  12.264  0.1139  0.6576 -0.1797
11693SOL    HW136520   5.214   1.908  12.297 -1.0031  0.3569  1.4360
11693SOL    HW236521   5.208   2.046  12.236  1.2794 -0.2507 -0.2962
11694SOL     OW36522   7.443   5.546   8.991  0.0916  0.2562 -1.3278
11694SOL    HW136523   7.357   5.512   8.967  0.3267 -0.4107 -1.2471
11694SOL    HW236524   7.483   5.476   9.043 -0.4376  1.6653  1.1393
11695SOL     OW36525   1.551   4.036   1.181 -0.2333  0.2009  0.2397
11695SOL    HW136526   1.551   3.985   1.100 -0.1776  0.9641 -0.2515
11695SOL    HW236527   1.460   4.062   1.194 -0.0779  0.9810 -0.1691
11696SOL     OW36528   6.358   0.172   7.031 -0.2523  0.1468 -0.6421
11696SOL    HW136529   6.299   0.110   7.075 -0.3442  1.8401  1.7997
11696SOL    HW236530   6.300   0.235   6.990 -0.2353  1.2797  0.9705
11697SOL     OW36531   6.772   1.066  10.033 -0.0512  0.2793 -0.3007
11697SOL    HW136532   6.773   1.081  10.127 -3.3914 -2.0414  0.2546
11697SOL    HW236533   6.820   0.984  10.021  0.1202  0.4197 -0.5971
11698SOL     OW36534   5.912   0.596   1.859  0.5367  0.5468 -0.1582
11698SOL    HW136535   5.820   0.616   1.841  0.4463  0.4801  0.2291
11698SOL    HW236536   5.954   0.681   1.873  0.5032  0.5669 -0.1820
11699SOL     OW36537   3.947   1.002   2.370  0.3212  1.0587 -0.2294
11699SOL    HW136538   4.024   1.013   2.314  1.2302 -0.3045  0.6826
11699SOL    HW236539   3.917   0.913   2.351 -0.0178  0.9815  0.6309
11700SOL     OW36540   1.753   4.445  11.128 -0.0351 -0.3493 -0.5979
11700SOL    HW136541   1.836   4.397  11.126 -0.7149 -1.5643 -0.8868
11700SOL    HW236542   1.769   4.520  11.185  0.8818 -1.2918  0.4187
11701SOL     OW36543   3.014   1.324   4.477  0.4971  0.2707 -0.4526
11701SOL    HW136544   3.001   1.265   4.403 -2.5780  1.0753 -0.6689
11701SOL    HW236545   2.951   1.294   4.543 -0.6700  2.8409 -0.2965
11702SOL     OW36546   1.420   2.777  12.085  0.5018  0.5099 -0.0546
11702SOL    HW136547   1.476   2.757  12.160 -0.8042 -1.5252  0.4602
11702SOL    HW236548   1.356   2.840  12.118  0.1510 -0.1029  0.4499
11703SOL     OW36549   3.534   0.990   9.150  0.3751  0.3457 -0.8860
11703SOL    HW136550   3.556   0.943   9.069 -0.4066  0.1656 -1.0061
11703SOL    HW236551   3.611   1.043   9.169  0.9485 -0.3450 -1.2187
11704SOL     OW36552   3.713   1.615   8.902  0.2471  0.2311 -0.1830
11704SOL    HW136553   3.702   1.523   8.881 -0.8798  0.4209 -0.4744
11704SOL    HW236554   3.705   1.660   8.817 -0.1320  0.6685  0.0774
11705SOL     OW36555   0.684   0.429  11.868 -0.6153  0.1763 -0.0563
11705SOL    HW136556   0.590   0.411  11.873 -0.1660 -2.5415  0.0182
11705SOL    HW236557   0.694   0.514  11.911 -3.0499  0.6279 -0.2550
11706SOL     OW36558   7.834   5.214  12.020  0.0931  0.4527  0.2180
11706SOL    HW136559   7.762   5.272  12.043  1.0945  1.4528  0.9257
11706SOL    HW236560   7.805   5.172  11.939 -1.9249 -0.3560  1.2832
11707SOL     OW36561   7.451   7.217   2.755 -0.1475  0.1716 -0.9044
11707SOL    HW136562   7.449   7.313   2.745 -0.1923  0.1815 -0.8000
11707SOL    HW236563   7.542   7.194   2.741 -0.3991  0.0499 -2.6223
11708SOL     OW36564   7.237   4.910   7.217  0.4654 -0.8093  0.1007
11708SOL    HW136565   7.224   4.908   7.122 -1.0776 -0.2473  0.2612
11708SOL    HW236566   7.324   4.874   7.231  1.6579  1.1955 -1.6769
11709SOL     OW36567   2.409   1.264   1.508 -0.1497  0.5569  0.3174
11709SOL    HW136568   2.480   1.266   1.572  0.0218 -0.7891  0.2012
11709SOL    HW236569   2.453   1.278   1.424 -0.2103  1.0899  0.3726
11710SOL     OW36570   3.568   3.666   2.579  0.2881 -0.0506  0.0932
11710SOL    HW136571   3.592   3.728   2.511 -0.8469  0.3980  0.0891
11710SOL    HW236572   3.611   3.699   2.658 -0.3688  0.7860  0.1062
11711SOL     OW36573   5.623   6.602   6.665 -0.1770 -0.1610 -0.1518
11711SOL    HW136574   5.567   6.624   6.591 -0.1313 -0.7001 -0.3538
11711SOL    HW236575   5.712   6.616   6.633 -0.1433 -0.7074 -0.3131
11712SOL     OW36576   3.132   3.725   2.037  0.2572  0.1088 -0.2411
11712SOL    HW136577   3.101   3.642   2.071 -1.0612  0.0747 -1.4382
11712SOL    HW236578   3.151   3.778   2.115 -0.9733 -0.5606  0.5458
11713SOL     OW36579   6.577   6.722   4.527 -0.0957  0.3004  0.0921
11713SOL    HW136580   6.569   6.644   4.473  0.7578 -0.0202  0.4094
11713SOL    HW236581   6.668   6.749   4.517 -0.3141  1.1096  0.1849
11714SOL     OW36582   1.837   7.791   9.955 -0.0759 -0.0911  0.1504
11714SOL    HW136583   1.869   7.724  10.015 -0.0240  0.3954  0.6770
11714SOL    HW236584   1.837   7.749   9.869  1.0796 -0.3966  0.2866
11715SOL     OW36585   7.790   1.019   7.161  0.2943 -0.2259  0.2419
11715SOL    HW136586   7.752   0.976   7.085  1.6406 -0.8805 -0.0997
11715SOL    HW236587   7.794   0.951   7.228  0.4195 -0.0408  0.4234
11716SOL     OW36588   3.559   0.556   1.990 -0.5009  0.1862  0.0464
11716SOL    HW136589   3.585   0.589   2.076  1.6436  0.3401 -0.5959
11716SOL    HW236590   3.560   0.633   1.933 -0.5135 -0.1492 -0.4132
11717SOL     OW36591   2.147   6.222   9.803  0.0485  0.1937 -0.0122
11717SOL    HW136592   2.218   6.179   9.849  0.2015 -0.2897 -0.6806
11717SOL    HW236593   2.145   6.311   9.839  0.1527 -0.1720  0.9149
11718SOL     OW36594   7.263   7.156   0.258 -0.2110 -0.3048 -0.1642
11718SOL    HW136595   7.321   7.207   0.202 -0.3418  1.0106  0.8472
11718SOL    HW236596   7.319   7.088   0.294  0.3290 -0.0050 -0.4141
11719SOL     OW36597   3.904   6.985   3.469  0.7200 -0.2846 -0.5591
11719SOL    HW136598   3.963   6.958   3.399  0.5540 -1.6662 -0.2012
11719SOL    HW236599   3.947   6.954   3.549 -0.0758 -0.5649 -0.2306
11720SOL     OW36600   4.013   7.415  10.872  0.1444  0.6228  0.0791
11720SOL    HW136601   3.945   7.477  10.846  0.0783  0.3785 -0.3538
11720SOL    HW236602   4.095   7.463  10.861  0.0943  0.6341 -0.2660
11721SOL     OW36603   5.297   2.099   4.356  0.1680 -0.1129 -0.2920
11721SOL    HW136604   5.354   2.054   4.418 -1.0923 -0.4288  0.6821
11721SOL    HW236605   5.351   2.170   4.321  1.5257 -1.1337 -0.3232
11722SOL     OW36606   6.610   1.542   8.846 -0.1118 -0.4429 -0.0197
11722SOL    HW136607   6.531   1.535   8.899 -0.4051  2.1951  0.0453
11722SOL    HW236608   6.634   1.452   8.826 -2.5199 -1.3554  0.8483
11723SOL     OW36609   2.636   5.225  11.616  0.2081  0.5770 -0.0775
11723SOL    HW136610   2.709   5.163  11.623  0.5088  0.9406  0.0556
11723SOL    HW236611   2.578   5.187  11.550 -1.0728 -1.3132  2.0127
11724SOL     OW36612   5.949   2.642   4.011 -0.0234  0.0527  0.8911
11724SOL    HW136613   5.874   2.588   3.985  1.2202 -1.1901 -0.2295
11724SOL    HW236614   5.909   2.716   4.058 -2.0884  0.3300 -1.1251
11725SOL     OW36615   2.233   3.873   6.961 -0.2469  0.2784  0.7609
11725SOL    HW136616   2.303   3.906   7.017 -0.5643  1.3036  0.5857
11725SOL    HW236617   2.264   3.888   6.872  0.2993 -1.4416  0.6436
11726SOL     OW36618   6.874   0.344  10.641 -0.5890  0.2780  0.6176
11726SOL    HW136619   6.858   0.342  10.735 -1.2081 -0.6994  0.5092
11726SOL    HW236620   6.902   0.255  10.619 -0.9139  0.3588 -0.1850
11727SOL     OW36621   0.287   3.483   1.059  0.6264 -0.0956 -0.5415
11727SOL    HW136622   0.240   3.448   0.983 -0.5240 -0.7856  0.4435
11727SOL    HW236623   0.294   3.577   1.043 -0.7223 -0.0475 -0.9208
11728SOL     OW36624   3.961   7.066   6.480 -0.2783 -0.0855  0.3486
11728SOL    HW136625   3.947   6.999   6.413  1.2594 -0.1088 -0.0007
11728SOL    HW236626   3.922   7.031   6.559 -0.3256 -0.9652 -0.0582
11729SOL     OW36627   3.047   0.955   7.968 -0.0438  0.1353 -0.1462
11729SOL    HW136628   3.059   1.046   7.997  0.2738  0.5383 -1.4973
11729SOL    HW236629   3.099   0.903   8.030 -0.1972  0.8640  0.6150
11730SOL     OW36630   7.372   7.418   2.494  0.4193  0.1820  0.3286
11730SOL    HW136631   7.368   7.514   2.503  0.7461  0.2589 -0.3211
11730SOL    HW236632   7.360   7.386   2.584  0.1011  0.8215  0.5286
11731SOL     OW36633   0.324   6.670   9.004 -0.0998  0.3248  0.0525
11731SOL    HW136634   0.335   6.672   9.099 -1.3179  1.8514  0.1933
11731SOL    HW236635   0.314   6.577   8.983 -0.5223  0.0247  1.5016
11732SOL     OW36636   3.000   7.652  11.068 -0.3755 -0.1903 -0.2510
11732SOL    HW136637   2.923   7.700  11.099 -0.3957 -0.0823 -0.4667
11732SOL    HW236638   2.981   7.634  10.976  0.5121  1.1438 -0.7153
11733SOL     OW36639   6.482   3.016   1.276 -0.2007  0.4406  0.2915
11733SOL    HW136640   6.460   2.957   1.204 -2.1068 -0.8366  1.8232
11733SOL    HW236641   6.426   3.092   1.263 -0.5538  0.2048  0.4440
11734SOL     OW36642   6.072   6.888  10.035 -0.4914 -0.2003 -0.2441
11734SOL    HW136643   5.993   6.834  10.021 -0.1282 -0.8331  0.0930
11734SOL    HW236644   6.074   6.903  10.130 -0.9655  1.0071 -0.4069
11735SOL     OW36645   1.619   1.404   4.880  0.3678  0.1824 -0.1096
11735SOL    HW136646   1.700   1.358   4.904  0.3467 -0.1656 -0.7042
11735SOL    HW236647   1.640   1.448   4.797 -0.5804 -1.3457 -1.2067
11736SOL     OW36648   1.395   2.926   4.593  0.0889  0.6403  0.2773
11736SOL    HW136649   1.346   3.002   4.624 -1.1936  0.2634 -0.7441
11736SOL    HW236650   1.330   2.871   4.549  1.2106 -0.4789 -0.0613
11737SOL     OW36651   7.816   1.285   1.499  0.3510  0.2895 -0.5084
11737SOL    HW136652   7.868   1.234   1.561  0.0033 -0.8940 -1.1691
11737SOL    HW236653   7.871   1.360   1.477  0.8779  0.2031  0.4711
11738SOL     OW36654   4.242   0.629   8.480  0.9398 -0.3339  0.0277
11738SOL    HW136655   4.249   0.624   8.384  1.0557 -1.7165  0.0978
11738SOL    HW236656   4.224   0.722   8.497  0.7885 -0.0866 -1.3379
11739SOL     OW36657   5.386   0.798   1.837  0.0306  0.5181 -0.4104
11739SOL    HW136658   5.392   0.732   1.768  1.6099  2.4189 -2.2379
11739SOL    HW236659   5.460   0.778   1.896  0.2626  0.4034 -0.7388
11740SOL     OW36660   5.547   2.662   3.327  0.0196  0.3076  0.2049
11740SOL    HW136661   5.457   2.650   3.356 -0.6180 -0.9760 -2.1148
11740SOL    HW236662   5.599   2.653   3.408 -1.6667 -2.4680  1.1306
11741SOL     OW36663   3.189   3.299  11.375  0.6719 -0.4956 -0.0288
11741SOL    HW136664   3.219   3.389  11.370  2.1756 -0.9822 -0.5534
11741SOL    HW236665   3.094   3.305  11.387  0.8037  1.1382  0.4098
11742SOL     OW36666   4.988   0.434   8.920  0.4036 -0.4909 -0.3766
11742SOL    HW136667   4.998   0.459   9.011 -1.5913 -1.0590  0.0390
11742SOL    HW236668   5.054   0.366   8.906  0.1550 -1.0129  0.8933
11743SOL     OW36669   7.005   5.381   3.466 -0.0951  0.6437 -0.5106
11743SOL    HW136670   6.924   5.394   3.514 -1.0213 -0.7069 -1.6005
11743SOL    HW236671   7.023   5.465   3.424  0.7980  1.8756  2.1707
11744SOL     OW36672   4.818   0.023   3.021  0.5986 -0.3737 -0.2347
11744SOL    HW136673   4.793   0.095   3.081 -1.8528  1.0871 -2.7551
11744SOL    HW236674   4.869   0.066   2.952  0.8792 -1.4616 -0.7149
11745SOL     OW36675   0.377   1.275   6.340  0.0555 -0.3730 -0.3058
11745SOL    HW136676   0.432   1.236   6.407  1.4106  0.1308 -1.0955
11745SOL    HW236677   0.287   1.253   6.367  0.4945  0.3494  2.0031
11746SOL     OW36678   3.681   5.931   7.118 -0.5213 -0.3769 -0.1830
11746SOL    HW136679   3.751   5.867   7.128  0.1050  0.4502  0.9533
11746SOL    HW236680   3.702   5.977   7.036  1.0385  0.7321  0.7779
11747SOL     OW36681   3.189   5.175   8.750  0.4067 -0.0897 -0.0605
11747SOL    HW136682   3.258   5.115   8.779  1.6186  0.7496 -1.1355
11747SOL    HW236683   3.229   5.262   8.752 -1.2173  0.7112  1.1568
11748SOL     OW36684   6.157   0.941   9.650 -0.0279  0.3348 -0.1739
11748SOL    HW136685   6.109   0.862   9.623  1.0117 -0.4971  0.3618
11748SOL    HW236686   6.169   0.990   9.568 -2.1112  0.7864 -0.2774
11749SOL     OW36687   4.992   1.338  11.718  0.3673  0.0819  0.5898
11749SOL    HW136688   4.974   1.317  11.626 -1.1865  2.0374  0.3634
11749SOL    HW236689   5.032   1.425  11.714  1.0334 -0.1621  1.7283
11750SOL     OW36690   7.167   4.334   5.835 -0.1536 -0.0449  0.4461
11750SOL    HW136691   7.122   4.361   5.916 -1.3736  0.3235 -0.3308
11750SOL    HW236692   7.241   4.282   5.866 -0.0608  0.8588  1.8361
11751SOL     OW36693   1.611   3.289  12.016  1.2026 -0.1367  0.3630
11751SOL    HW136694   1.660   3.317  12.093  0.8035  0.0213  0.5625
11751SOL    HW236695   1.600   3.194  12.027  0.6656 -0.0286  0.7797
11752SOL     OW36696   6.665   7.169   7.260  0.5367  0.2818  0.3439
11752SOL    HW136697   6.582   7.188   7.304  0.0227 -0.5925 -0.2046
11752SOL    HW236698   6.639   7.123   7.180  1.5546  0.0005  0.1609
11753SOL     OW36699   0.800   5.288   2.014 -0.0631 -0.2125 -0.4043
11753SOL    HW136700   0.824   5.243   2.095  1.0107  0.2479 -0.4456
11753SOL    HW236701   0.709   5.315   2.027 -0.4612 -1.6254 -0.0490
11754SOL     OW36702   3.906   4.481   6.817  0.0901 -0.5153 -0.4305
11754SOL    HW136703   3.923   4.574   6.828 -0.1678 -0.1909 -2.4077
11754SOL    HW236704   3.839   4.461   6.882  0.9727  0.3881  0.8018
11755SOL     OW36705   6.744   5.469   7.035  0.7009  0.2440  0.1442
11755SOL    HW136706   6.695   5.410   6.978  0.3359 -1.0565  1.6976
11755SOL    HW236707   6.800   5.519   6.976 -1.4239  0.7519 -1.5515
11756SOL     OW36708   6.956   3.548  11.261 -0.7707 -0.1907  0.0546
11756SOL    HW136709   6.950   3.511  11.173 -0.2930 -1.0495  0.3803
11756SOL    HW236710   6.946   3.473  11.319  1.4712 -0.0264  0.7209
11757SOL     OW36711   0.063   6.407  11.892 -0.2500 -0.3454  0.4122
11757SOL    HW136712  -0.013   6.362  11.929 -1.2428 -0.8470 -2.0149
11757SOL    HW236713   0.133   6.341  11.892 -0.5924 -0.7161  0.3229
11758SOL     OW36714   4.888   5.113  10.003 -0.1865 -0.1279  0.5149
11758SOL    HW136715   4.822   5.129  10.071  0.3819  2.3880  0.5575
11758SOL    HW236716   4.866   5.174   9.933 -0.2104 -2.0509 -1.2382
11759SOL     OW36717   0.232   5.022  10.797  0.4489  0.5928  0.3796
11759SOL    HW136718   0.163   4.986  10.740  0.1882 -0.8365  1.5240
11759SOL    HW236719   0.313   4.982  10.764  0.2298 -0.6767  1.2950
11760SOL     OW36720   3.508   6.545   4.905  0.4261 -0.2329 -0.7289
11760SOL    HW136721   3.498   6.623   4.851  1.9087  0.2972 -0.2995
11760SOL    HW236722   3.507   6.578   4.995  0.0404 -0.8497 -0.4959
11761SOL     OW36723   4.216   2.223   1.574  0.2447  0.0376  0.4470
11761SOL    HW136724   4.306   2.199   1.551  0.5260  1.0379  0.4800
11761SOL    HW236725   4.166   2.207   1.494  0.4162 -0.6723  0.4757
11762SOL     OW36726   3.720   6.545   4.132  0.2542 -0.2032  0.2532
11762SOL    HW136727   3.652   6.479   4.127 -1.0546  1.1032  0.1376
11762SOL    HW236728   3.768   6.525   4.213  0.9561 -2.2377 -0.6130
11763SOL     OW36729   1.112   4.123   4.903 -0.0260 -0.1773 -0.5029
11763SOL    HW136730   1.191   4.176   4.910 -1.2306  1.4823  2.3936
11763SOL    HW236731   1.079   4.141   4.815  2.0844  0.1059 -1.2982
11764SOL     OW36732   4.200   6.006   5.884  0.0502  0.3784 -0.3046
11764SOL    HW136733   4.126   5.946   5.888  0.0721  0.3875  0.3006
11764SOL    HW236734   4.260   5.976   5.952 -0.3082  1.5570  0.5812
11765SOL     OW36735   2.959   0.376   9.511  0.3314  0.8337  0.0881
11765SOL    HW136736   3.000   0.453   9.550  1.1701  1.2654 -1.5898
11765SOL    HW236737   2.865   0.392   9.519  0.4234  0.6908  2.2719
11766SOL     OW36738   0.485   3.325   6.205 -0.4162 -0.4285  0.2009
11766SOL    HW136739   0.446   3.282   6.281  0.8895 -0.6507  0.7659
11766SOL    HW236740   0.571   3.284   6.195 -0.5753 -0.4461 -1.4383
11767SOL     OW36741   5.649   2.514  12.009  0.3961 -0.1517  0.1930
11767SOL    HW136742   5.711   2.587  11.998  1.9059 -1.3329  0.4710
11767SOL    HW236743   5.583   2.548  12.069  2.7737  0.0655  2.9231
11768SOL     OW36744   2.411   0.459  11.915 -0.2627 -0.1185 -0.4074
11768SOL    HW136745   2.500   0.450  11.950 -0.2797 -0.4414 -0.4426
11768SOL    HW236746   2.370   0.373  11.930 -0.3604 -0.1784 -0.9668
11769SOL     OW36747   2.671   1.605   8.623 -0.1259  0.4419  0.2698
11769SOL    HW136748   2.581   1.579   8.640 -0.2882  0.3741 -0.6771
11769SOL    HW236749   2.664   1.692   8.584  0.0759 -0.3423 -1.6113
11770SOL     OW36750   2.419   3.436   5.673  0.1560 -0.7238 -0.1564
11770SOL    HW136751   2.406   3.360   5.730  1.8480 -1.3253 -0.5084
11770SOL    HW236752   2.414   3.402   5.584 -0.0557 -0.2349 -0.3383
11771SOL     OW36753   4.473   6.998   7.596 -0.1032  0.4303 -0.9081
11771SOL    HW136754   4.535   6.969   7.530 -0.0181 -0.4942 -0.4357
11771SOL    HW236755   4.390   6.958   7.569 -0.0838  0.1145 -0.5002
11772SOL     OW36756   0.535   0.220   2.441 -0.3640  0.5410  0.5781
11772SOL    HW136757   0.488   0.303   2.436 -1.6524 -0.1839  0.4328
11772SOL    HW236758   0.471   0.154   2.415  0.6271 -0.5105  0.7390
11773SOL     OW36759   1.898   0.567   1.048 -0.6706  0.1584 -0.2817
11773SOL    HW136760   1.953   0.490   1.037 -0.2801  0.2715  0.8559
11773SOL    HW236761   1.930   0.611   1.126 -0.8054  1.5632 -0.9638
11774SOL     OW36762   2.708   6.680   5.853 -0.0062 -0.0845 -0.4195
11774SOL    HW136763   2.706   6.656   5.946 -0.4590  2.1341  0.1878
11774SOL    HW236764   2.796   6.716   5.840 -0.3381  0.6962 -0.5426
11775SOL     OW36765   2.451   1.982   5.846  0.3920 -0.2191  0.7884
11775SOL    HW136766   2.488   1.922   5.911 -0.5168 -0.8392  0.7523
11775SOL    HW236767   2.515   1.984   5.776  0.7473 -0.6194  1.0976
11776SOL     OW36768   6.170   2.256   0.772  0.3899  0.2202 -0.4925
11776SOL    HW136769   6.094   2.313   0.787  0.3402  0.6082 -2.0405
11776SOL    HW236770   6.211   2.291   0.693  1.7585 -0.4510 -0.1059
11777SOL     OW36771   1.528   4.361  12.066 -0.1638 -0.1826  0.2260
11777SOL    HW136772   1.455   4.394  12.014 -1.4360 -1.3505  1.2094
11777SOL    HW236773   1.523   4.410  12.148 -0.4755 -0.9466  0.6768
11778SOL     OW36774   4.986   6.425   3.465  0.3398 -0.4273  0.0702
11778SOL    HW136775   4.918   6.480   3.427  0.1764 -0.2419  0.6301
11778SOL    HW236776   4.942   6.343   3.488  0.6462 -0.9371 -1.0547
11779SOL     OW36777   4.347   1.004   6.785  0.8468 -0.0867  0.4843
11779SOL    HW136778   4.430   1.014   6.832  0.3714 -0.5127  1.4534
11779SOL    HW236779   4.280   1.016   6.853  0.1450 -2.2082  0.2686
11780SOL     OW36780   6.479   1.599   2.585  0.3242  0.4827  0.5056
11780SOL    HW136781   6.429   1.638   2.513  1.8493 -0.8872 -1.4360
11780SOL    HW236782   6.570   1.617   2.563  0.8029  1.5696  3.1154
11781SOL     OW36783   5.270   3.278   9.071  0.2091 -0.1230  0.9742
11781SOL    HW136784   5.325   3.341   9.024  0.7736 -0.5693  1.0230
11781SOL    HW236785   5.194   3.266   9.014  0.7040 -0.3649  0.3461
11782SOL     OW36786   0.804   1.367   3.390 -0.1202  0.3622 -0.8345
11782SOL    HW136787   0.713   1.387   3.370  0.0574 -0.2569 -2.4664
11782SOL    HW236788   0.800   1.289   3.446 -0.6127  1.1864  0.3051
11783SOL     OW36789   3.743   1.592   6.016 -0.0516  0.4577 -0.1085
11783SOL    HW136790   3.674   1.543   5.972  0.0805  0.5003 -0.3695
11783SOL    HW236791   3.819   1.534   6.014  0.1666  0.7542 -0.6131
11784SOL     OW36792   3.178   2.300  11.944 -0.9305 -0.1192  0.0646
11784SOL    HW136793   3.088   2.271  11.955 -0.3999 -2.1232 -0.3928
11784SOL    HW236794   3.230   2.227  11.979  0.5376 -0.3810 -2.4682
11785SOL     OW36795   2.063   5.458  11.337 -0.2294  0.1094  0.1573
11785SOL    HW136796   1.982   5.485  11.380 -0.2056 -2.2691  1.8903
11785SOL    HW236797   2.034   5.419  11.254 -0.9532 -0.9610  0.8764
11786SOL     OW36798   0.407   4.854   0.535  1.1200  0.4093 -0.4239
11786SOL    HW136799   0.421   4.767   0.574  0.7206 -0.1818 -1.5539
11786SOL    HW236800   0.328   4.887   0.579  1.2416  0.1785 -0.0236
11787SOL     OW36801   5.461   4.718   6.823  0.5084 -0.0792  0.5760
11787SOL    HW136802   5.522   4.738   6.894 -0.8829  1.9468  1.2814
11787SOL    HW236803   5.478   4.784   6.757  0.5957 -0.8857 -0.2191
11788SOL     OW36804   1.196   2.066   8.928 -0.0905 -0.0541 -0.5982
11788SOL    HW136805   1.189   1.971   8.941 -0.0071  0.1210  0.8829
11788SOL    HW236806   1.243   2.075   8.845 -0.1982 -1.3079 -0.8127
11789SOL     OW36807   1.663   0.907   3.651 -0.1279 -0.4219 -0.6394
11789SOL    HW136808   1.711   0.979   3.692  0.7496 -0.7390 -1.0710
11789SOL    HW236809   1.717   0.882   3.576 -0.4033 -1.5369 -0.4887
11790SOL     OW36810   6.832   7.713  11.714  0.5631 -0.1192 -0.3961
11790SOL    HW136811   6.745   7.746  11.732  0.9007 -0.3379  1.8374
11790SOL    HW236812   6.824   7.618  11.722  0.7742 -0.2329 -1.3636
11791SOL     OW36813   2.616   5.382  11.101 -0.2466 -0.5772  0.8573
11791SOL    HW136814   2.588   5.464  11.062  1.6161  0.0790  0.8088
11791SOL    HW236815   2.546   5.320  11.080 -2.2081  1.1987  1.7952
11792SOL     OW36816   4.706   6.473   3.719 -0.0920  0.0811 -0.6187
11792SOL    HW136817   4.743   6.385   3.709 -0.6031 -0.5048  2.0204
11792SOL    HW236818   4.685   6.480   3.812 -1.1961  2.5690 -0.9804
11793SOL     OW36819   1.407   0.107   1.429  0.0109 -0.4614  0.1573
11793SOL    HW136820   1.488   0.076   1.387  0.9980 -1.8287  2.8392
11793SOL    HW236821   1.414   0.202   1.428  2.0724 -0.5506  0.9907
11794SOL     OW36822   5.543   6.722   3.044  0.0012  0.3974 -0.0634
11794SOL    HW136823   5.545   6.786   2.973 -0.6566  0.0692 -0.3873
11794SOL    HW236824   5.626   6.674   3.036  0.3623  0.9976 -0.0017
11795SOL     OW36825   5.675   2.976   7.068  0.0351 -0.3184 -0.6863
11795SOL    HW136826   5.764   2.954   7.041  0.2992 -0.5517  0.3430
11795SOL    HW236827   5.675   3.071   7.078  0.5523 -0.4256  0.5564
11796SOL     OW36828   6.808   3.391  11.813 -0.1812  0.3811  0.0316
11796SOL    HW136829   6.720   3.352  11.808 -0.0572  0.0675  0.2930
11796SOL    HW236830   6.860   3.328  11.863 -0.0934  1.0952  0.8671
11797SOL     OW36831   7.866   7.135   6.362 -0.1201  0.2435 -0.4214
11797SOL    HW136832   7.849   7.205   6.426 -0.0013 -0.3810  0.3074
11797SOL    HW236833   7.780   7.113   6.329 -0.2545  0.1464 -0.0165
11798SOL     OW36834   6.125   0.390  10.873 -0.4183  0.5687 -0.3808
11798SOL    HW136835   6.201   0.404  10.816 -0.2549  2.9573  0.3063
11798SOL    HW236836   6.077   0.319  10.831  0.4048  1.2961 -2.7471
11799SOL     OW36837   2.476   5.754   3.000  0.3960 -0.1424 -0.3045
11799SOL    HW136838   2.530   5.707   2.937  2.2625  1.4681  0.0085
11799SOL    HW236839   2.415   5.804   2.946 -0.5263 -1.5817 -0.6723
11800SOL     OW36840   2.996   0.928   8.428  0.2722 -0.0015  0.0227
11800SOL    HW136841   2.947   0.965   8.355 -1.2149 -1.9246 -0.0573
11800SOL    HW236842   2.958   0.968   8.506 -2.3425 -2.2143  0.0378
11801SOL     OW36843   6.429   4.449   5.185 -0.1422 -0.0388 -0.0403
11801SOL    HW136844   6.446   4.513   5.254 -2.0182 -1.3799  1.7818
11801SOL    HW236845   6.335   4.429   5.193  0.0539 -1.8667 -1.5420
11802SOL     OW36846   1.693   5.719   5.724  0.0379  0.6916 -0.1027
11802SOL    HW136847   1.710   5.625   5.733 -1.4592  0.3903 -0.2474
11802SOL    HW236848   1.772   5.753   5.683  1.0070 -0.3328  0.8340
11803SOL     OW36849   6.766   3.612   3.312 -0.3990  0.6664  0.0990
11803SOL    HW136850   6.847   3.592   3.266 -0.3645 -0.1672  0.5002
11803SOL    HW236851   6.697   3.595   3.248 -0.4459 -1.9308  0.7176
11804SOL     OW36852   1.789   2.512   7.328  0.0736 -0.6121 -0.3972
11804SOL    HW136853   1.875   2.508   7.287 -0.7270 -0.1390 -2.1880
11804SOL    HW236854   1.806   2.546   7.416  1.5894  0.7522 -1.1674
11805SOL     OW36855   1.673   7.783   2.746 -0.2107 -0.6126 -0.2094
11805SOL    HW136856   1.623   7.773   2.827  0.5670 -0.8147  0.2539
11805SOL    HW236857   1.753   7.828   2.772  0.1012 -0.7811 -0.8434
11806SOL     OW36858   0.199   6.305   4.637 -0.9185 -0.2580 -0.4810
11806SOL    HW136859   0.154   6.384   4.607 -1.6180 -0.4969 -0.1031
11806SOL    HW236860   0.219   6.323   4.729 -1.9883 -0.8829 -0.0951
11807SOL     OW36861   2.644   4.340   8.152 -0.3356 -0.0093 -0.4577
11807SOL    HW136862   2.579   4.340   8.081 -0.3911  2.0597 -0.4736
11807SOL    HW236863   2.697   4.262   8.136 -1.2703 -0.3906 -1.9021
11808SOL     OW36864   7.157   4.668   2.207 -0.2256 -0.3049  0.0599
11808SOL    HW136865   7.088   4.603   2.221  0.2546 -0.7262  0.5017
11808SOL    HW236866   7.197   4.681   2.293  1.4191 -1.4029 -0.4758
11809SOL     OW36867   7.031   1.376  11.080  0.1638  0.1570 -0.1491
11809SOL    HW136868   6.981   1.355  11.001  0.4486 -2.3798  0.2815
11809SOL    HW236869   6.973   1.434  11.129 -1.2417 -0.5626 -0.8894
11810SOL     OW36870   6.617   1.408   2.916  0.5585  0.1560  0.0277
11810SOL    HW136871   6.688   1.414   2.852 -0.4463  0.2277 -1.0924
11810SOL    HW236872   6.538   1.398   2.864 -0.2092 -0.5067  1.2810
11811SOL     OW36873   4.617   2.163   0.325  0.2865 -0.8271  0.6589
11811SOL    HW136874   4.668   2.087   0.354  2.2789  0.1096 -0.2081
11811SOL    HW236875   4.597   2.145   0.233  0.8659 -0.2835  0.4160
11812SOL     OW36876   4.206   4.215   6.064 -0.2845  0.1639  0.3902
11812SOL    HW136877   4.276   4.267   6.025  0.8082 -0.3330  1.6135
11812SOL    HW236878   4.134   4.277   6.078  0.4988  1.0377  0.5919
11813SOL     OW36879   1.017   6.088   1.399 -0.0402  0.2258  0.6207
11813SOL    HW136880   0.989   6.167   1.352  0.8426  0.3149  0.2139
11813SOL    HW236881   1.059   6.121   1.478  2.4990  0.3348 -0.6822
11814SOL     OW36882   0.787   0.049   0.619 -0.0976 -0.3708 -0.1933
11814SOL    HW136883   0.763   0.127   0.569  0.3224 -0.3844 -0.4211
11814SOL    HW236884   0.716  -0.013   0.602  0.1840 -0.4814 -1.0179
11815SOL     OW36885   0.657   3.036   5.644 -0.0948 -0.5933  0.2752
11815SOL    HW136886   0.698   2.981   5.577 -0.2316 -1.5024  0.9348
11815SOL    HW236887   0.599   2.977   5.692 -0.7733  0.2792  0.5507
11816SOL     OW36888   1.138   7.286   5.953 -0.5353 -0.1961  0.0376
11816SOL    HW136889   1.133   7.364   5.898 -0.0834  0.7466  1.2981
11816SOL    HW236890   1.070   7.228   5.919 -0.4229  0.4498 -1.3509
11817SOL     OW36891   0.366   0.040   3.946  0.0771 -0.7679  0.5258
11817SOL    HW136892   0.400   0.112   4.000 -0.1656  0.0924 -0.4291
11817SOL    HW236893   0.444  -0.000   3.908  0.1422  0.9225 -1.3064
11818SOL     OW36894   2.495   4.618  12.086  0.5225  0.5931  0.7216
11818SOL    HW136895   2.570   4.584  12.133 -0.4468 -1.7989  0.6922
11818SOL    HW236896   2.428   4.633  12.153  0.1668  0.1502  0.4762
11819SOL     OW36897   0.555   0.187   6.422  0.1346  0.4051 -0.2460
11819SOL    HW136898   0.536   0.205   6.330  0.1311  1.0686 -0.1215
11819SOL    HW236899   0.478   0.142   6.455  0.5224 -0.7147 -0.8042
11820SOL     OW36900   7.316   2.954  11.894 -0.2209  0.4174 -0.8299
11820SOL    HW136901   7.372   2.940  11.971 -0.7394  0.2165 -0.4834
11820SOL    HW236902   7.294   2.865  11.864 -2.6854  0.3910  0.7607
11821SOL     OW36903   0.033   0.255  11.956 -0.0029 -0.4698 -0.4671
11821SOL    HW136904   0.027   0.203  11.876  0.5682 -2.3796  0.6400
11821SOL    HW236905   0.127   0.262  11.974 -0.1249 -0.2331  0.1250
11822SOL     OW36906   3.466   3.893   6.424 -0.0152  0.8277  0.6191
11822SOL    HW136907   3.525   3.959   6.387  0.5365  0.4714  0.8482
11822SOL    HW236908   3.512   3.810   6.411 -1.4686  0.2591 -1.2484
11823SOL     OW36909   5.626   1.069   4.222  0.2591 -0.3296  0.1179
11823SOL    HW136910   5.601   1.085   4.131  1.2447  1.0485  0.0696
11823SOL    HW236911   5.695   1.132   4.240 -0.8391  0.3523  2.2571
11824SOL     OW36912   1.574   7.917   1.663  0.2181 -0.0595  0.1262
11824SOL    HW136913   1.599   7.998   1.619  0.3755 -0.5543 -0.7247
11824SOL    HW236914   1.613   7.848   1.610 -2.2965 -0.8325 -0.8645
11825SOL     OW36915   0.789   3.003   2.092  0.2868 -0.4756 -0.1593
11825SOL    HW136916   0.712   3.045   2.131  0.5797 -0.6331  0.6050
11825SOL    HW236917   0.753   2.933   2.038 -0.1374 -0.1303 -0.3304
11826SOL     OW36918   1.683   4.016   1.490 -0.1448  0.1145 -0.1242
11826SOL    HW136919   1.707   3.938   1.441 -0.9026  0.1392 -0.5508
11826SOL    HW236920   1.707   4.089   1.433 -1.0694  0.1428 -0.5022
11827SOL     OW36921   7.824   4.434   5.097  0.9337  0.3449  0.4353
11827SOL    HW136922   7.741   4.467   5.131  1.4901  1.7383  0.5189
11827SOL    HW236923   7.865   4.511   5.056  1.9839 -0.4215  0.0153
11828SOL     OW36924   3.066   4.925   2.072  0.1991 -0.1537  0.3787
11828SOL    HW136925   3.034   4.837   2.091  2.1803 -0.8695  0.6916
11828SOL    HW236926   3.110   4.917   1.987  2.4437 -0.1273  1.4461
11829SOL     OW36927   6.894   0.669   7.708 -0.6059  0.0395 -0.4071
11829SOL    HW136928   6.856   0.587   7.738  1.8118 -0.2723  2.1704
11829SOL    HW236929   6.986   0.663   7.732  0.1206  2.6302 -2.1497
11830SOL     OW36930   6.425   1.644   1.072 -0.2665  0.2997  0.2140
11830SOL    HW136931   6.347   1.659   1.019 -1.0472 -0.0523  1.2348
11830SOL    HW236932   6.483   1.718   1.052 -1.0772  0.8467 -0.1448
11831SOL     OW36933   5.121   6.033   7.913  0.4243 -0.5366  0.2985
11831SOL    HW136934   5.158   6.121   7.920 -3.7295  1.4153  0.8989
11831SOL    HW236935   5.121   6.000   8.003  0.7135 -0.5398  0.2963
11832SOL     OW36936   1.428   3.130   6.581 -0.0348 -0.6357  0.1230
11832SOL    HW136937   1.487   3.199   6.552 -0.2925 -1.0030 -1.3524
11832SOL    HW236938   1.461   3.105   6.667  0.0687  1.3058  0.7085
11833SOL     OW36939   7.406   6.376   3.414 -0.6278  0.3223  0.0036
11833SOL    HW136940   7.341   6.322   3.371 -0.0489 -0.8394  0.5300
11833SOL    HW236941   7.358   6.422   3.483 -0.7497 -1.3473  1.1043
11834SOL     OW36942   6.172   4.857   1.965 -0.0795 -0.0000 -0.6662
11834SOL    HW136943   6.124   4.906   2.031 -1.0402 -1.6250 -0.1122
11834SOL    HW236944   6.134   4.884   1.882 -1.0473 -0.2513 -0.3195
11835SOL     OW36945   0.996   3.628   0.288 -0.3336 -0.8864 -0.0178
11835SOL    HW136946   1.050   3.677   0.226 -1.9107 -0.7368 -1.3647
11835SOL    HW236947   0.946   3.695   0.335 -0.4561 -1.0801  0.1299
11836SOL     OW36948   6.204   7.911  10.145 -0.0260  0.0995  0.3905
11836SOL    HW136949   6.162   7.840  10.096 -2.6405  1.0968  1.0506
11836SOL    HW236950   6.157   7.990  10.118 -0.3309  0.9369  3.1052
11837SOL     OW36951   1.206   4.893   3.087  0.7379 -0.0236 -0.1387
11837SOL    HW136952   1.239   4.961   3.147 -1.1644 -0.1003  1.0720
11837SOL    HW236953   1.260   4.816   3.108  0.4978  0.1174  1.0953
11838SOL     OW36954   2.518   1.157  11.014  0.6104  0.0315 -0.6093
11838SOL    HW136955   2.486   1.241  10.980 -0.8569 -0.4194 -0.4078
11838SOL    HW236956   2.565   1.119  10.940  0.1776  0.4741 -1.1290
11839SOL     OW36957   0.097   6.244   7.549 -0.2212  0.4703 -0.4335
11839SOL    HW136958   0.168   6.224   7.610  0.6894  0.7583 -1.3573
11839SOL    HW236959   0.142   6.281   7.472 -1.2855 -0.2827 -1.4453
11840SOL     OW36960   6.494   7.408   2.889  0.0103  0.4946 -0.3086
11840SOL    HW136961   6.500   7.499   2.917 -0.9097  0.3866  0.2677
11840SOL    HW236962   6.499   7.413   2.793 -0.1361  1.1564 -0.2908
11841SOL     OW36963   3.050   1.254  10.524  0.5723  0.0671 -0.4941
11841SOL    HW136964   2.994   1.199  10.579 -1.2330  2.8198  0.6643
11841SOL    HW236965   3.107   1.298  10.586 -0.1263  1.7322 -0.9887
11842SOL     OW36966   2.430   6.080  11.609  0.2582 -0.2312  0.1208
11842SOL    HW136967   2.407   6.048  11.522 -0.8000 -0.4587  0.4727
11842SOL    HW236968   2.440   6.175  11.598 -2.9405  0.2517  0.3049
11843SOL     OW36969   6.964   1.908   7.539 -0.4401 -0.2241  0.0788
11843SOL    HW136970   6.936   1.964   7.612  0.6655 -0.2296  0.5283
11843SOL    HW236971   6.988   1.969   7.470  2.1071 -0.0095  1.0495
11844SOL     OW36972   0.298   5.024   2.539  0.4324  0.1505  0.6867
11844SOL    HW136973   0.349   5.080   2.597 -0.4998  0.0564  1.6236
11844SOL    HW236974   0.294   4.939   2.584 -0.7161  0.2178  0.7496
11845SOL     OW36975   6.230   3.662   5.786  0.4887  0.2367  0.1303
11845SOL    HW136976   6.198   3.597   5.723  2.6325 -1.3316  0.5664
11845SOL    HW236977   6.322   3.674   5.764  0.9942  0.5397  2.2099
11846SOL     OW36978   6.315   6.708   1.392  0.3199 -0.1506  0.3097
11846SOL    HW136979   6.295   6.794   1.428 -0.0656 -0.4461  0.8242
11846SOL    HW236980   6.401   6.686   1.427  0.2167 -0.1657  0.5625
11847SOL     OW36981   7.233   6.244   4.181 -0.2174 -0.2250 -0.4149
11847SOL    HW136982   7.187   6.251   4.265 -1.2339  0.9108 -1.0496
11847SOL    HW236983   7.313   6.296   4.193 -1.1942  1.3812 -0.6861
11848SOL     OW36984   0.870   3.779   9.370  0.1553  0.5349  0.0982
11848SOL    HW136985   0.908   3.860   9.338  0.6004  0.1588 -0.3458
11848SOL    HW236986   0.851   3.795   9.462  0.7084  0.9669  0.1383
11849SOL     OW36987   6.642   5.130   2.821  0.6340 -0.2546  0.5586
11849SOL    HW136988   6.719   5.144   2.766  0.2987  0.6149  0.2961
11849SOL    HW236989   6.570   5.171   2.774 -0.2600 -2.0702  0.2221
11850SOL     OW36990   3.566   0.246   1.007 -0.2608 -1.0173  0.5626
11850SOL    HW136991   3.555   0.154   1.031  0.9157 -1.0647  1.0175
11850SOL    HW236992   3.656   0.251   0.974 -0.1219  0.0636  1.0515
11851SOL     OW36993   4.234   0.065   8.673  0.3160 -0.1757 -0.2819
11851SOL    HW136994   4.251   0.088   8.582  1.8779 -0.3783 -0.0580
11851SOL    HW236995   4.153   0.013   8.670 -2.2473  3.5102 -0.9940
11852SOL     OW36996   4.932   6.179  10.680 -0.0169  0.8438 -0.7607
11852SOL    HW136997   4.908   6.121  10.751  0.4166 -0.1404 -1.4042
11852SOL    HW236998   4.868   6.251  10.684 -0.4071  0.4483  0.1785
11853SOL     OW36999   1.930   5.186   4.002  0.1763  0.6404 -0.2927
11853SOL    HW137000   1.859   5.241   4.035 -0.6860 -0.5434 -0.1452
11853SOL    HW237001   1.896   5.150   3.920 -0.3892 -1.8664  0.9688
11854SOL     OW37002   4.052   6.363   6.124  0.2708  0.6164  0.2072
11854SOL    HW137003   4.133   6.368   6.073  0.9495 -1.0954  1.0442
11854SOL    HW237004   4.016   6.452   6.120  2.3360  1.5013  0.0467
11855SOL     OW37005   1.747   7.539   5.714 -0.0568  0.5085 -0.3846
11855SOL    HW137006   1.655   7.559   5.727  0.5001  3.8478 -0.5389
11855SOL    HW237007   1.767   7.572   5.627  1.3426  0.1408 -0.2305
11856SOL     OW37008   1.348   3.043  11.049 -0.1641  0.2571  0.4155
11856SOL    HW137009   1.370   2.989  11.124 -1.2525  0.1266  0.6532
11856SOL    HW237010   1.418   3.108  11.045  1.5516 -1.5616 -0.3125
11857SOL     OW37011   4.217   3.847  10.979 -0.0065  0.6973 -0.0551
11857SOL    HW137012   4.283   3.852  11.048  1.2331 -2.8561 -0.7904
11857SOL    HW237013   4.143   3.898  11.014  0.6058 -0.7110  3.8647
11858SOL     OW37014   6.980   1.660   5.284  0.8269 -0.6970 -0.5813
11858SOL    HW137015   6.922   1.638   5.357  1.3584 -0.4679 -0.0849
11858SOL    HW237016   6.946   1.744   5.252  0.5876 -0.8014 -0.6023
11859SOL     OW37017   4.362   1.533   5.541 -0.0686  0.3813  0.2390
11859SOL    HW137018   4.452   1.565   5.542 -0.5277  1.7821  0.1238
11859SOL    HW237019   4.369   1.440   5.561  1.2338  0.8646  2.4318
11860SOL     OW37020   3.317   0.202  11.193  0.7224 -0.2956  0.0142
11860SOL    HW137021   3.385   0.135  11.194  1.5534  0.4964 -1.4008
11860SOL    HW237022   3.294   0.213  11.101  0.5111  1.2502  0.2200
11861SOL     OW37023   5.784   3.437   9.365 -0.0995  0.0160  0.1725
11861SOL    HW137024   5.704   3.393   9.335  1.5505 -3.8329  0.8198
11861SOL    HW237025   5.777   3.438   9.460 -0.3890  1.9384  0.1659
11862SOL     OW37026   5.887   0.600   5.047 -0.0507 -0.6221  0.0261
11862SOL    HW137027   5.872   0.694   5.034 -0.6760 -0.6725  0.3239
11862SOL    HW237028   5.895   0.565   4.959  1.4344 -0.1031 -0.0645
11863SOL     OW37029   2.644   7.907   0.348  0.2633  0.4240 -0.5242
11863SOL    HW137030   2.582   7.860   0.404  0.7660  1.8310  1.3292
11863SOL    HW237031   2.631   7.871   0.261 -0.6374 -1.8241  0.4744
11864SOL     OW37032   4.216   7.838   2.387 -0.4387 -0.1774  0.5027
11864SOL    HW137033   4.213   7.778   2.462  1.0144 -1.4438 -0.3895
11864SOL    HW237034   4.173   7.791   2.316 -1.4789  0.8688  0.4107
11865SOL     OW37035   1.719   5.713   3.635  0.1507  0.2535  0.6166
11865SOL    HW137036   1.693   5.769   3.708 -1.8437 -0.4960  0.5380
11865SOL    HW237037   1.723   5.625   3.674 -2.4065 -0.4013 -0.4050
11866SOL     OW37038   7.409   0.248   5.655  0.4675  0.3348  0.1515
11866SOL    HW137039   7.332   0.303   5.639  0.8831  0.9993  0.3909
11866SOL    HW237040   7.475   0.308   5.688  1.0562 -0.2512  0.0692
11867SOL     OW37041   7.308   4.975  11.842  0.3307  0.2477 -0.2237
11867SOL    HW137042   7.255   4.921  11.901 -0.9592  0.3678 -1.2217
11867SOL    HW237043   7.316   4.922  11.763  0.3054  0.9176 -0.6806
11868SOL     OW37044   1.804   0.403  10.079 -0.0612 -0.6140 -0.2649
11868SOL    HW137045   1.756   0.402  10.162  0.4909 -1.7741  0.0627
11868SOL    HW237046   1.755   0.463  10.023  0.2907  1.2814  1.3294
11869SOL     OW37047   7.195   4.221   8.912  0.6201  0.2552  0.4358
11869SOL    HW137048   7.244   4.219   8.831 -0.4097 -2.9283 -0.2540
11869SOL    HW237049   7.122   4.281   8.895  0.8464  0.2233 -0.7193
11870SOL     OW37050   1.846   4.723   7.967  0.6359  0.0422  0.6383
11870SOL    HW137051   1.785   4.796   7.955 -0.8489 -1.4373 -1.7033
11870SOL    HW237052   1.802   4.666   8.031  1.7586  1.0589  2.4060
11871SOL     OW37053   3.678   1.269  11.859  0.4722  0.3808  0.7103
11871SOL    HW137054   3.647   1.223  11.781 -0.3564  0.7645  0.8102
11871SOL    HW237055   3.697   1.199  11.922 -0.9339  0.1552  0.9164
11872SOL     OW37056   0.268   7.783   6.392 -0.3303  0.0136  0.2087
11872SOL    HW137057   0.258   7.694   6.357 -1.8768 -0.5070  1.8364
11872SOL    HW237058   0.342   7.819   6.343  0.2703 -2.1207 -0.5993
11873SOL     OW37059   5.251   4.849   5.322 -0.1876 -0.7111 -0.2399
11873SOL    HW137060   5.318   4.913   5.346 -1.4977  0.6446 -0.0507
11873SOL    HW237061   5.289   4.764   5.345  1.1191  0.0737  0.6138
11874SOL     OW37062   2.095   3.102   4.455  0.0033  0.1371 -0.0672
11874SOL    HW137063   2.186   3.127   4.438  0.8770 -2.4203  0.3901
11874SOL    HW237064   2.048   3.130   4.377  1.6234 -0.4219 -1.3102
11875SOL     OW37065   2.796   6.821  10.431  0.3086 -0.2833 -0.4710
11875SOL    HW137066   2.760   6.888  10.489  0.1441 -0.4847 -0.3376
11875SOL    HW237067   2.863   6.866  10.380  1.7134 -0.4916  1.1027
11876SOL     OW37068   3.773   2.871   2.755  0.9004 -0.3717 -0.7121
11876SOL    HW137069   3.775   2.959   2.717  0.3865  0.6376  1.3925
11876SOL    HW237070   3.852   2.867   2.810 -0.4765 -0.0766  1.4121
11877SOL     OW37071   6.098   1.097   3.132  0.0738  0.2208 -0.0159
11877SOL    HW137072   6.054   1.144   3.061 -1.0882  0.1279  0.6199
11877SOL    HW237073   6.115   1.163   3.198 -1.3162 -0.1609  0.7633
11878SOL     OW37074   5.922   5.911   8.013  0.3217  0.0814 -0.1056
11878SOL    HW137075   5.863   5.983   8.038  0.9933  0.2182  1.1962
11878SOL    HW237076   5.994   5.954   7.967 -0.2414 -0.0104 -1.1049
11879SOL     OW37077   2.941   7.681  10.308 -0.0015  0.0094 -0.7045
11879SOL    HW137078   2.847   7.672  10.328  0.2808  2.8163  2.8911
11879SOL    HW237079   2.982   7.609  10.357 -0.0991  0.7762  0.5480
11880SOL     OW37080   5.807   0.019   5.636 -0.2311  0.3149 -0.3240
11880SOL    HW137081   5.733  -0.033   5.668 -0.0178  0.4278  0.3585
11880SOL    HW237082   5.832   0.074   5.711 -0.3930  1.3351 -0.9882
11881SOL     OW37083   6.836   6.488   3.410 -0.6334  0.1197 -0.3464
11881SOL    HW137084   6.813   6.404   3.369  1.9527 -1.9475  2.0274
11881SOL    HW237085   6.912   6.518   3.361  0.5679 -0.7713  0.9153
11882SOL     OW37086   7.500   7.215   9.256 -0.9194 -0.3384  0.1685
11882SOL    HW137087   7.413   7.182   9.232 -2.1931  1.7272  1.5902
11882SOL    HW237088   7.549   7.215   9.174 -2.6697 -0.4076 -0.9285
11883SOL     OW37089   2.942   3.029   5.673  0.3218 -0.2560  0.0963
11883SOL    HW137090   2.910   2.951   5.628 -1.7118  0.2090  0.6112
11883SOL    HW237091   2.878   3.044   5.743  2.1383  0.3539  1.6966
11884SOL     OW37092   7.340   4.401   6.526 -0.2260 -0.0165 -0.1474
11884SOL    HW137093   7.299   4.406   6.612  1.1862 -1.8665  0.7099
11884SOL    HW237094   7.286   4.340   6.477  1.1087 -2.1365  0.8477
11885SOL     OW37095   5.400   6.199   8.118  0.1542 -1.1894  0.6883
11885SOL    HW137096   5.371   6.285   8.147 -1.3267 -1.4434  0.0147
11885SOL    HW237097   5.432   6.156   8.198 -0.2062 -0.4569  1.2285
11886SOL     OW37098   2.529   3.502   6.760  0.1088 -0.7188  0.2048
11886SOL    HW137099   2.617   3.538   6.770  0.3277 -1.5355  1.3855
11886SOL    HW237100   2.492   3.551   6.686  2.3035 -1.7878 -1.7575
11887SOL     OW37101   6.826   2.423   5.660 -0.2200  0.1292  0.1128
11887SOL    HW137102   6.883   2.497   5.639 -1.0880  0.8467  0.2184
11887SOL    HW237103   6.847   2.357   5.594  1.8694 -0.2661  1.1135
11888SOL     OW37104   7.376   6.815  12.334 -0.0594 -0.0498  0.2082
11888SOL    HW137105   7.455   6.762  12.342  0.7182  0.9700 -0.4968
11888SOL    HW237106   7.380   6.875  12.409  0.6529  1.0167 -0.6487
11889SOL     OW37107   3.075   0.121   8.799  0.6300  1.0506 -0.1759
11889SOL    HW137108   3.095   0.178   8.874 -2.7642  1.5344  0.5538
11889SOL    HW237109   3.007   0.062   8.832  0.0176  0.3640 -2.4923
11890SOL     OW37110   3.476   7.588   9.654 -0.3061 -0.8223  0.6042
11890SOL    HW137111   3.567   7.558   9.656 -0.6644 -1.9801  0.5520
11890SOL    HW237112   3.456   7.595   9.560  0.8479  3.1708  0.4984
11891SOL     OW37113   4.339   5.558   2.980 -0.2710  0.4234  0.1763
11891SOL    HW137114   4.292   5.634   3.014  0.2168  0.7608  0.0943
11891SOL    HW237115   4.414   5.595   2.934 -0.2258 -0.0901 -0.1691
11892SOL     OW37116   1.679   7.015   4.070  0.1464 -0.1102  0.8728
11892SOL    HW137117   1.716   7.057   3.993 -0.2957 -0.9519  0.1876
11892SOL    HW237118   1.677   7.084   4.136 -1.3166  1.1864 -0.4530
11893SOL     OW37119   5.568   5.736   4.536  0.8399  0.5236  0.3197
11893SOL    HW137120   5.581   5.826   4.564 -0.0852  0.4762  0.9244
11893SOL    HW237121   5.644   5.689   4.572  0.7028  0.8424  1.0351
11894SOL     OW37122   5.585   0.522   9.293  0.6719 -0.0118  0.1409
11894SOL    HW137123   5.498   0.558   9.273  0.1796 -1.5089 -0.6011
11894SOL    HW237124   5.640   0.551   9.220  0.6425  0.4110  0.2831
11895SOL     OW37125   0.149   7.095   7.211  0.1390 -0.5080 -0.2934
11895SOL    HW137126   0.166   7.179   7.255 -0.6736 -1.2271  1.4728
11895SOL    HW237127   0.155   7.030   7.280 -0.5898 -1.7803 -1.3765
11896SOL     OW37128   5.133   6.822   0.509 -0.4495  0.5448  0.0820
11896SOL    HW137129   5.040   6.830   0.529 -0.5476 -0.6915  0.1447
11896SOL    HW237130   5.142   6.736   0.467  0.4915  1.0943 -0.9104
11897SOL     OW37131   1.460   6.212   8.282  0.0670  0.3213  0.4207
11897SOL    HW137132   1.471   6.307   8.282 -1.0840  0.4903 -1.0725
11897SOL    HW237133   1.532   6.179   8.228  0.5653  0.3026  1.0749
11898SOL     OW37134   6.172   1.889   3.773 -0.3666  0.0827 -0.0461
11898SOL    HW137135   6.246   1.856   3.824 -0.0576 -0.2411 -0.6910
11898SOL    HW237136   6.094   1.862   3.823 -0.0551  1.5130  1.3008
11899SOL     OW37137   7.906   5.223   4.965 -0.5116 -0.2383 -0.0537
11899SOL    HW137138   7.920   5.295   4.904 -2.1371  0.9659  0.9021
11899SOL    HW237139   7.821   5.242   5.005 -0.9768 -2.6657  0.2871
11900SOL     OW37140   6.775   4.925   2.429 -0.0127 -0.0760 -0.0824
11900SOL    HW137141   6.778   4.853   2.492  0.2279 -0.3322 -0.3866
11900SOL    HW237142   6.804   5.002   2.478  1.6762 -0.5529 -0.2682
11901SOL     OW37143   7.299   2.857   7.580 -0.2137 -0.0159 -0.3488
11901SOL    HW137144   7.295   2.826   7.490  2.7804 -0.9985 -0.2541
11901SOL    HW237145   7.371   2.808   7.620  0.6252  2.5796  1.6598
11902SOL     OW37146   1.049   3.659   7.319 -0.3907 -0.6198 -0.3335
11902SOL    HW137147   1.063   3.573   7.359 -1.9174 -0.4206  0.7257
11902SOL    HW237148   1.020   3.714   7.391 -2.2877  0.0151 -1.4927
11903SOL     OW37149   6.550   1.201   4.302 -0.2732 -0.0085 -0.3457
11903SOL    HW137150   6.559   1.246   4.218  0.9104  1.5741  0.5795
11903SOL    HW237151   6.572   1.110   4.282  1.9686  0.6950 -1.4290
11904SOL     OW37152   4.176   1.663   2.006 -0.4864 -0.1078  0.1165
11904SOL    HW137153   4.130   1.722   2.066  1.5741  0.9061  0.7928
11904SOL    HW237154   4.225   1.721   1.948 -0.4334 -1.1369 -0.9124
11905SOL     OW37155   2.110   6.216  10.565 -0.3717 -0.0840 -0.2675
11905SOL    HW137156   2.172   6.279  10.528 -0.0070 -0.6168 -0.5576
11905SOL    HW237157   2.090   6.156  10.493 -0.6801 -0.3375  0.0250
11906SOL     OW37158   2.530   4.538   3.788 -0.5963 -0.1839 -0.2489
11906SOL    HW137159   2.499   4.626   3.810 -2.0392 -0.8893  0.7647
11906SOL    HW237160   2.602   4.523   3.849 -1.3307 -0.2408  0.6352
11907SOL     OW37161   1.588   6.060   2.394 -0.1146 -0.3937  0.5765
11907SOL    HW137162   1.589   6.005   2.315 -1.2004 -1.1782  1.0914
11907SOL    HW237163   1.675   6.046   2.433  1.2438  1.5815 -1.4938
11908SOL     OW37164   7.760   5.435   2.497 -0.0915 -0.5616 -0.0078
11908SOL    HW137165   7.822   5.494   2.539 -0.7868  0.4304 -0.3341
11908SOL    HW237166   7.807   5.352   2.490  1.6456  0.4545 -1.2801
11909SOL     OW37167   3.238   2.406   5.919  0.6388  0.0292  0.3128
11909SOL    HW137168   3.174   2.470   5.948  1.7337  0.5707  1.6494
11909SOL    HW237169   3.265   2.436   5.832 -0.6640 -0.0330 -0.1265
11910SOL     OW37170   3.782   0.896  10.960 -0.1173 -0.6893  0.3502
11910SOL    HW137171   3.778   0.865  11.050  1.0271  0.5538  0.8628
11910SOL    HW237172   3.805   0.989  10.967  2.3322 -1.0809 -1.2292
11911SOL     OW37173   1.727   5.003   1.062  0.0849  0.1785 -0.2164
11911SOL    HW137174   1.725   4.946   0.985 -4.2189 -0.9714  0.4788
11911SOL    HW237175   1.670   5.077   1.039 -0.2684  0.4454  1.3912
11912SOL     OW37176   2.228   2.013   9.574  0.1942  0.2029 -0.0048
11912SOL    HW137177   2.306   1.959   9.559 -0.5151 -0.2190 -2.6413
11912SOL    HW237178   2.263   2.100   9.592  1.3070 -0.1751 -0.2231
11913SOL     OW37179   2.418   1.630   9.589  0.0921 -0.7393 -0.4625
11913SOL    HW137180   2.455   1.621   9.501  1.7907  0.0012  0.1394
11913SOL    HW237181   2.435   1.546   9.631 -0.1707 -0.8791 -0.6303
11914SOL     OW37182   2.829   1.046   0.303 -0.2488  0.1580 -0.0201
11914SOL    HW137183   2.875   1.064   0.386  1.1927  2.0157 -1.1381
11914SOL    HW237184   2.773   1.123   0.290  1.3258  1.0887 -1.8639
11915SOL     OW37185   5.234   7.240   1.857  0.4733 -0.1508  0.4167
11915SOL    HW137186   5.289   7.246   1.935  0.3660 -1.3498  0.6121
11915SOL    HW237187   5.208   7.148   1.853 -0.7965  0.2007 -0.1623
11916SOL     OW37188   3.208   0.406   0.469  0.1502 -0.2526 -0.1878
11916SOL    HW137189   3.157   0.431   0.392 -1.9709 -1.2018  0.8305
11916SOL    HW237190   3.174   0.320   0.493  0.0665  0.4254  2.3743
11917SOL     OW37191   3.498   2.994   7.707  0.6352  0.3881  0.6160
11917SOL    HW137192   3.461   3.051   7.773  0.6714 -1.2189  2.0845
11917SOL    HW237193   3.573   3.043   7.672 -0.4350  1.9851  0.4526
11918SOL     OW37194   6.921   3.028   0.719 -0.0951 -0.0017  0.5260
11918SOL    HW137195   6.897   3.113   0.683  0.0192 -0.1984 -0.0201
11918SOL    HW237196   6.859   3.013   0.790 -0.2820  0.4163  0.4517
11919SOL     OW37197   0.255   1.637   4.448  0.1663  0.2466 -0.3715
11919SOL    HW137198   0.290   1.609   4.533  0.4136  0.1455 -0.5085
11919SOL    HW237199   0.261   1.732   4.450  1.5484  0.1843 -0.8703
11920SOL     OW37200   4.278   5.030   5.763  0.3296 -0.0449  0.0768
11920SOL    HW137201   4.313   5.049   5.850  1.8876  0.0568 -0.5491
11920SOL    HW237202   4.183   5.039   5.773  0.5132  0.4034  1.6531
11921SOL     OW37203   6.675   3.862  11.462 -0.0989  0.1425  0.4343
11921SOL    HW137204   6.706   3.937  11.512 -0.3001 -0.7002  1.8904
11921SOL    HW237205   6.755   3.821  11.429  0.3332 -1.0548  2.7372
11922SOL     OW37206   6.595   1.615  11.296 -0.1610 -0.2818  0.3485
11922SOL    HW137207   6.543   1.619  11.377 -0.4733  0.8868  0.1168
11922SOL    HW237208   6.661   1.683  11.306  0.3501 -0.7157 -0.0189
11923SOL     OW37209   2.795   5.069   9.057 -0.0407 -0.3746  0.9250
11923SOL    HW137210   2.870   5.129   9.060 -0.2338  0.1357 -1.7306
11923SOL    HW237211   2.721   5.122   9.086 -0.1832  0.7326 -1.2681
11924SOL     OW37212   5.843   7.702   9.644 -0.0109 -0.1306 -0.0658
11924SOL    HW137213   5.776   7.690   9.711  1.8362 -0.4339  1.8212
11924SOL    HW237214   5.895   7.775   9.676  1.5243 -0.9381 -0.6478
11925SOL     OW37215   2.926   3.301  11.336  0.2345  0.0972 -0.3898
11925SOL    HW137216   2.832   3.315  11.339  0.1365 -0.4348 -0.8265
11925SOL    HW237217   2.938   3.233  11.270  0.9394  0.2796 -0.4575
11926SOL     OW37218   6.215   6.581   7.417  0.2840  0.7797 -0.4319
11926SOL    HW137219   6.287   6.638   7.444 -0.0399  1.2655 -0.5949
11926SOL    HW237220   6.244   6.544   7.333  1.0301 -0.2660  0.2577
11927SOL     OW37221   4.525   3.162   8.401  0.0739  0.0423  0.0272
11927SOL    HW137222   4.604   3.214   8.413 -0.5825  1.7909 -2.4891
11927SOL    HW237223   4.514   3.154   8.306 -2.2556 -0.9609  0.2909
11928SOL     OW37224   5.357   4.242  11.797  0.5136 -0.1312 -0.4973
11928SOL    HW137225   5.421   4.200  11.740 -0.7692  0.0562 -2.1332
11928SOL    HW237226   5.350   4.332  11.764 -1.6381 -0.5442 -1.3295
11929SOL     OW37227   2.470   6.715  10.663  0.3326 -0.0677  0.1462
11929SOL    HW137228   2.544   6.710  10.723  2.0329 -2.0607 -1.9053
11929SOL    HW237229   2.417   6.638  10.684  0.4737 -0.2933 -0.2975
11930SOL     OW37230   7.895   7.321   4.544  0.6208  0.1103 -0.3426
11930SOL    HW137231   7.825   7.368   4.589  1.3867  0.3004  0.7172
11930SOL    HW237232   7.957   7.390   4.518  0.3269 -0.0307 -1.4610
11931SOL     OW37233   2.746   0.624   7.779  0.0152 -0.5075  0.9304
11931SOL    HW137234   2.832   0.583   7.766 -0.3924 -1.6943  1.7628
11931SOL    HW237235   2.713   0.585   7.860 -0.6674  1.0776  1.4610
11932SOL     OW37236   5.486   3.678   4.546  0.4985  0.1233 -0.0659
11932SOL    HW137237   5.532   3.760   4.562  1.0458 -0.2858  0.4647
11932SOL    HW237238   5.547   3.626   4.494  0.0804  0.1146 -0.5609
11933SOL     OW37239   4.314   5.558  11.648 -0.5330 -0.5818  0.2196
11933SOL    HW137240   4.249   5.540  11.716  0.8534 -0.4140  1.6495
11933SOL    HW237241   4.358   5.637  11.678 -0.5373  0.0761 -1.4112
11934SOL     OW37242   7.913   2.466   6.716 -0.6174  0.0467 -0.2028
11934SOL    HW137243   7.915   2.449   6.811 -0.8332 -0.0944 -0.2208
11934SOL    HW237244   7.996   2.508   6.697 -0.2238 -0.6650 -0.0875
11935SOL     OW37245   6.939   6.394   0.836  0.5510  0.0170  0.5043
11935SOL    HW137246   6.957   6.454   0.764  0.2942 -1.2251 -0.6288
11935SOL    HW237247   7.025   6.364   0.864  0.6137 -1.9595 -1.4870
11936SOL     OW37248   7.834   0.213   0.376 -0.0011  0.6018  0.1355
11936SOL    HW137249   7.864   0.301   0.349  0.0297  0.1925 -1.2710
11936SOL    HW237250   7.798   0.175   0.296 -0.6562 -0.4159  0.8950
11937SOL     OW37251   7.831   0.741   7.195 -0.9245  0.7737 -0.1370
11937SOL    HW137252   7.833   0.668   7.133  1.8538  2.1180 -1.8421
11937SOL    HW237253   7.856   0.703   7.279  0.9827 -0.2097 -1.0873
11938SOL     OW37254   6.725   4.426   1.910 -0.1353 -0.0150  0.5070
11938SOL    HW137255   6.705   4.355   1.850  1.0050  0.2224 -0.1940
11938SOL    HW237256   6.685   4.504   1.870  1.3414  0.3005 -0.4361
11939SOL     OW37257   5.983   2.504   7.204 -0.5697  0.2936  0.2913
11939SOL    HW137258   5.890   2.503   7.179  0.0224 -1.4374 -2.1220
11939SOL    HW237259   6.030   2.499   7.122  1.6906 -0.3858  1.5499
11940SOL     OW37260   5.241   0.447   3.372  0.4061 -0.8125 -0.5324
11940SOL    HW137261   5.175   0.384   3.342 -2.1598  0.9970  0.9460
11940SOL    HW237262   5.315   0.434   3.313 -0.5323 -4.1765 -1.1804
11941SOL     OW37263   3.386   7.845   1.708 -0.0961  0.0865  0.2244
11941SOL    HW137264   3.334   7.862   1.787 -0.7310 -1.6276  0.2268
11941SOL    HW237265   3.359   7.913   1.647 -0.1420  1.0007  1.2249
11942SOL     OW37266   2.871   3.397   5.013  0.1866  0.3260 -0.0274
11942SOL    HW137267   2.922   3.316   5.022 -1.9891 -0.9671  1.6115
11942SOL    HW237268   2.894   3.448   5.091 -0.5224 -0.0090  0.4169
11943SOL     OW37269   1.527   2.912   1.265  0.0761 -0.1318 -0.1715
11943SOL    HW137270   1.466   2.910   1.339 -0.5847 -0.1886 -0.7141
11943SOL    HW237271   1.556   2.821   1.256 -0.4941 -0.2857 -0.5107
11944SOL     OW37272   3.433   2.415   3.558 -0.0396 -0.1803  0.7016
11944SOL    HW137273   3.414   2.489   3.615  4.5650  1.8771 -0.0295
11944SOL    HW237274   3.380   2.430   3.480 -1.0988  0.8414  1.5857
11945SOL     OW37275   1.288   2.542   0.249  0.0975 -0.4001  0.6550
11945SOL    HW137276   1.345   2.478   0.293 -0.6326 -0.0391  2.1563
11945SOL    HW237277   1.202   2.500   0.247  0.1106 -0.3931 -0.4163
11946SOL     OW37278   7.856   4.046   8.134  0.0914 -0.1430 -0.0278
11946SOL    HW137279   7.768   4.036   8.096  0.4178  2.3018 -1.6216
11946SOL    HW237280   7.840   4.059   8.228 -1.3580  1.1961 -0.4141
11947SOL     OW37281   7.626   4.219   7.201  0.3816 -0.6025  0.3382
11947SOL    HW137282   7.556   4.239   7.139  1.8880  0.0298 -1.2194
11947SOL    HW237283   7.668   4.303   7.219 -0.6016 -0.5835  3.0377
11948SOL     OW37284   6.932   7.099   1.471  0.0317 -0.2329  0.8013
11948SOL    HW137285   7.022   7.072   1.449 -0.2210 -0.8781  0.5286
11948SOL    HW237286   6.941   7.189   1.500  0.3583  0.8503 -2.2805
11949SOL     OW37287   7.751   3.532   5.943 -0.4994 -0.5062 -0.3860
11949SOL    HW137288   7.715   3.613   5.907 -0.7026 -0.0625  0.7641
11949SOL    HW237289   7.683   3.499   6.002  0.3806 -0.4073  0.7329
11950SOL     OW37290   6.037   3.274   3.952  0.1830 -0.3482 -0.4104
11950SOL    HW137291   6.117   3.224   3.965 -0.1845 -1.2781 -1.5423
11950SOL    HW237292   6.063   3.349   3.899  0.3301 -0.5911 -0.6853
11951SOL     OW37293   2.778   2.545  12.215  0.1423 -0.5395 -0.2269
11951SOL    HW137294   2.803   2.603  12.143 -1.0026 -1.8652 -1.7666
11951SOL    HW237295   2.840   2.565  12.285  1.6531  0.4256 -1.7721
11952SOL     OW37296   0.014   0.411   5.112 -0.1740 -0.0912 -0.3560
11952SOL    HW137297  -0.054   0.390   5.176  0.4088  2.1233  1.0980
11952SOL    HW237298  -0.025   0.390   5.027 -2.1063 -0.2994  0.5368
11953SOL     OW37299   7.340   4.613   9.798  0.0180  0.5982 -0.0978
11953SOL    HW137300   7.283   4.647   9.729 -0.5974 -0.9797 -0.4169
11953SOL    HW237301   7.343   4.518   9.782 -0.0909  0.1922  1.9909
11954SOL     OW37302   1.447   0.830   4.924 -0.0166 -0.7513 -0.1471
11954SOL    HW137303   1.352   0.838   4.930  0.1386  1.3602  0.5519
11954SOL    HW237304   1.466   0.743   4.959 -1.5691 -0.4709  1.5914
11955SOL     OW37305   2.701   7.418   7.463 -0.2519 -0.0235  0.1698
11955SOL    HW137306   2.619   7.370   7.479  0.6966 -1.3412  1.3569
11955SOL    HW237307   2.672   7.505   7.436 -2.0438 -0.7684 -0.5302
11956SOL     OW37308   0.107   3.921   7.116  0.6213  0.3875  0.5343
11956SOL    HW137309   0.164   3.992   7.086  1.7402 -1.4920 -2.1573
11956SOL    HW237310   0.145   3.893   7.199  3.1232 -0.1409 -0.7014
11957SOL     OW37311   6.186   4.352  11.630  0.6202  0.2312  0.1410
11957SOL    HW137312   6.165   4.374  11.539  0.4919 -3.7204 -0.9757
11957SOL    HW237313   6.104   4.364  11.677  0.2188  0.6442 -0.6335
11958SOL     OW37314   2.124   1.747   9.388  0.1192 -0.4816 -0.2509
11958SOL    HW137315   2.116   1.768   9.481  0.3114 -1.1067 -0.0857
11958SOL    HW237316   2.064   1.807   9.345  0.7321  0.4724  0.1815
11959SOL     OW37317   0.797   5.268   8.331 -0.5567 -0.4137 -0.1519
11959SOL    HW137318   0.756   5.194   8.375  1.7542 -2.2928 -0.9327
11959SOL    HW237319   0.763   5.345   8.376 -3.0053 -1.9226  0.7466
11960SOL     OW37320   6.839   0.265   6.337  0.0751  0.6747  0.0577
11960SOL    HW137321   6.847   0.210   6.259  0.5093  0.1773  0.4522
11960SOL    HW237322   6.758   0.236   6.378  1.2123 -0.9547  1.2455
11961SOL     OW37323   0.162   4.922   2.906  0.7766 -0.2913 -0.3112
11961SOL    HW137324   0.076   4.923   2.948 -0.4176  2.2729 -2.4949
11961SOL    HW237325   0.151   4.863   2.831  0.1859  1.5948 -1.7782
11962SOL     OW37326   4.753   7.173  10.088  0.2598 -0.1433 -0.4423
11962SOL    HW137327   4.761   7.117  10.011  0.0954 -0.2106 -0.4106
11962SOL    HW237328   4.670   7.218  10.078 -0.1084 -0.6944  0.0497
11963SOL     OW37329   7.092   4.433   6.792 -0.1431  0.0737  0.2983
11963SOL    HW137330   7.127   4.492   6.859 -0.6918  0.0065  0.6488
11963SOL    HW237331   7.043   4.490   6.733 -0.1720  0.0503  0.2997
11964SOL     OW37332   2.837   5.351   4.382  0.4222  0.4150  0.3435
11964SOL    HW137333   2.781   5.401   4.323  0.7468  0.7132  0.2898
11964SOL    HW237334   2.816   5.260   4.363  2.0082  0.4069 -1.7309
11965SOL     OW37335   7.845   5.806   8.697 -0.1169  0.1991 -0.3126
11965SOL    HW137336   7.912   5.741   8.717 -0.6078 -0.0299  0.6431
11965SOL    HW237337   7.764   5.755   8.686 -0.2083  0.5024 -1.1364
11966SOL     OW37338   7.056   6.431   7.209  0.5438  0.4181  0.4565
11966SOL    HW137339   6.981   6.402   7.157  1.4193 -2.5192  0.6477
11966SOL    HW237340   7.020   6.450   7.296 -0.2449  0.8170  0.0444
11967SOL     OW37341   0.315   4.385   5.012  0.2685  0.0492  0.4495
11967SOL    HW137342   0.356   4.422   4.934  2.0807  0.4719  1.5446
11967SOL    HW237343   0.259   4.454   5.045  0.0541  0.1283 -0.0761
11968SOL     OW37344   3.453   7.380   4.507  0.2131  0.6523  0.3114
11968SOL    HW137345   3.527   7.436   4.529 -0.2407  0.9715  1.0706
11968SOL    HW237346   3.379   7.439   4.497 -0.0197  0.3031 -0.0863
11969SOL     OW37347   3.054   0.214   9.106  0.3102  0.5476 -0.5005
11969SOL    HW137348   3.043   0.295   9.156  1.0355 -1.1507  2.6429
11969SOL    HW237349   2.966   0.180   9.095 -0.0052  1.7004 -1.8831
11970SOL     OW37350   4.584   1.281  12.344 -0.0637  0.3309  0.1659
11970SOL    HW137351   4.550   1.325  12.265 -1.6136 -0.4227  0.3718
11970SOL    HW237352   4.531   1.317  12.415  1.3875  1.0661  0.9004
11971SOL     OW37353   5.587   4.454   6.803  0.2715  0.6382  0.3932
11971SOL    HW137354   5.582   4.431   6.711  0.5780  1.3649  0.1922
11971SOL    HW237355   5.563   4.546   6.807  3.1320  1.4589  0.6389
11972SOL     OW37356   2.778   4.806   1.971  0.2377  0.1377 -0.4236
11972SOL    HW137357   2.824   4.774   1.893 -0.2968  0.7272 -0.9894
11972SOL    HW237358   2.693   4.835   1.939 -0.5415 -0.9098  0.6110
11973SOL     OW37359   1.879   7.283   4.750  0.4256 -0.6644  0.0053
11973SOL    HW137360   1.820   7.257   4.678 -0.8311  0.9173  0.4075
11973SOL    HW237361   1.941   7.343   4.710 -0.4674  0.4660  0.2448
11974SOL     OW37362   3.307   1.038   4.971 -0.0050 -0.1924 -0.6136
11974SOL    HW137363   3.398   1.046   4.942  0.3706 -0.3263  0.4992
11974SOL    HW237364   3.303   0.953   5.015 -0.3848  0.3002  0.3283
11975SOL     OW37365   0.317   2.682  10.269 -0.7697 -0.0326 -0.5665
11975SOL    HW137366   0.389   2.656  10.325 -0.2351  0.9968 -0.7617
11975SOL    HW237367   0.324   2.625  10.192 -0.1869  0.0473 -0.5711
11976SOL     OW37368   3.554   2.718   7.753 -0.7549 -0.9230  0.0657
11976SOL    HW137369   3.530   2.808   7.732 -0.1375 -0.2531  2.0233
11976SOL    HW237370   3.641   2.706   7.714  0.0351  0.0305  1.4446
11977SOL     OW37371   1.280   4.439   9.570 -0.5099 -0.2608  0.3517
11977SOL    HW137372   1.327   4.436   9.487  1.2445 -0.7752  1.3223
11977SOL    HW237373   1.250   4.349   9.584 -0.5967 -0.2243  0.4018
11978SOL     OW37374   7.766   5.287   4.597 -0.2790 -0.0710 -0.3139
11978SOL    HW137375   7.717   5.365   4.622 -0.0295 -0.7110  2.6311
11978SOL    HW237376   7.722   5.216   4.644  2.8067 -0.8034  1.8325
11979SOL     OW37377   1.904   0.208   5.843 -0.7077 -0.0656  0.7033
11979SOL    HW137378   1.979   0.268   5.835  0.7953 -1.9687 -0.6189
11979SOL    HW237379   1.941   0.130   5.885 -1.7039 -1.3896 -0.7663
11980SOL     OW37380   6.477   7.013  11.954  0.1711 -0.0579 -0.3494
11980SOL    HW137381   6.505   6.948  12.018  0.1340 -0.5769 -0.8503
11980SOL    HW237382   6.384   6.997  11.942  0.1979 -0.0225 -0.6051
11981SOL     OW37383   7.180   2.877   5.322 -0.1113 -0.2974  0.3216
11981SOL    HW137384   7.211   2.960   5.287  1.0748 -1.3828 -1.3284
11981SOL    HW237385   7.258   2.835   5.358 -0.5733 -0.9926  0.5352
11982SOL     OW37386   3.095   6.852   4.589  0.0101 -0.6176 -0.1835
11982SOL    HW137387   3.094   6.763   4.552 -1.4661 -0.7487  0.1038
11982SOL    HW237388   3.092   6.839   4.683 -1.4354 -0.2693 -0.1670
11983SOL     OW37389   6.323   3.861   3.425 -0.1082 -0.0390 -0.1401
11983SOL    HW137390   6.410   3.888   3.456  0.3486 -1.2244 -0.3391
11983SOL    HW237391   6.289   3.939   3.381  0.6952  0.5639  0.2658
11984SOL     OW37392   2.424   1.504  11.526 -0.1654 -0.6548 -0.7702
11984SOL    HW137393   2.342   1.549  11.502 -0.5790 -1.1179 -0.2464
11984SOL    HW237394   2.477   1.507  11.446  0.2335  1.6428 -0.4972
11985SOL     OW37395   1.471   5.054   2.852 -0.1964  0.0151 -0.1472
11985SOL    HW137396   1.514   5.007   2.923 -1.7961 -0.8862  0.2727
11985SOL    HW237397   1.448   5.139   2.890  0.3805  0.1579 -0.1061
11986SOL     OW37398   3.737   5.609  10.175 -0.4688  0.2444  0.5676
11986SOL    HW137399   3.794   5.542  10.213  0.3514  0.4494 -0.2843
11986SOL    HW237400   3.651   5.568  10.171 -0.2443 -0.3133  1.2073
11987SOL     OW37401   6.510   4.837   9.206 -0.5137  0.3943  0.2459
11987SOL    HW137402   6.420   4.862   9.186 -0.2450  0.6051 -0.7828
11987SOL    HW237403   6.502   4.752   9.249 -1.1395 -0.5444 -1.5906
11988SOL     OW37404   2.647   7.356  10.494  0.5198  0.1711  0.6633
11988SOL    HW137405   2.553   7.344  10.482  0.5091  2.0357 -2.1234
11988SOL    HW237406   2.676   7.400  10.413  3.8170 -0.4927  1.3452
11989SOL     OW37407   3.896   3.688   4.270  0.3345  0.8430 -0.0896
11989SOL    HW137408   3.801   3.689   4.260  0.0913 -0.1952  1.5885
11989SOL    HW237409   3.911   3.721   4.359  1.4498 -0.0814  0.0868
11990SOL     OW37410   2.767   3.453   3.795  0.1740  0.3279 -0.1276
11990SOL    HW137411   2.795   3.389   3.728  0.8049  0.6985 -0.2285
11990SOL    HW237412   2.759   3.535   3.747 -0.5122  0.3585  0.0306
11991SOL     OW37413   5.226   2.335   9.422  0.0632 -0.4811  0.1086
11991SOL    HW137414   5.275   2.316   9.342 -0.2765 -0.0177 -0.2169
11991SOL    HW237415   5.285   2.389   9.475 -1.1301  2.8675 -1.6450
11992SOL     OW37416   3.264   2.135  10.120 -0.1352  0.5182  0.4571
11992SOL    HW137417   3.294   2.222  10.145  1.1873  0.7420 -1.7548
11992SOL    HW237418   3.329   2.075  10.158  0.0356  0.6189  0.3197
11993SOL     OW37419   3.474   7.104   0.280  0.2811 -0.3373  0.7640
11993SOL    HW137420   3.491   7.158   0.358 -0.7673  1.1456  0.0009
11993SOL    HW237421   3.518   7.151   0.209 -2.3698  0.7103 -0.2859
11994SOL     OW37422   4.799   0.457  10.014 -0.2444  0.2017 -0.2305
11994SOL    HW137423   4.888   0.480   9.987 -0.1414 -0.4787 -0.5045
11994SOL    HW237424   4.810   0.404  10.092 -0.2171 -2.0574 -1.6756
11995SOL     OW37425   7.842   0.517   1.622  0.4882 -0.2770 -0.0019
11995SOL    HW137426   7.906   0.508   1.551  1.3539 -1.7648  0.9093
11995SOL    HW237427   7.891   0.558   1.693 -0.1727  0.5397 -0.0021
11996SOL     OW37428   3.077   3.737   8.412 -0.2349  0.0877 -0.3587
11996SOL    HW137429   2.999   3.789   8.430 -0.2432 -0.1594  0.3758
11996SOL    HW237430   3.089   3.684   8.491  0.8423  0.3299 -0.3458
11997SOL     OW37431   5.785   6.668   7.037  0.3752  0.2304 -0.5600
11997SOL    HW137432   5.831   6.589   7.007  0.7458  0.9049 -1.8110
11997SOL    HW237433   5.829   6.691   7.118  0.1008 -0.9864 -0.0345
11998SOL     OW37434   5.272   3.356   9.604 -0.2087  0.7495  0.3047
11998SOL    HW137435   5.283   3.340   9.511 -1.2314 -1.9314  0.5460
11998SOL    HW237436   5.196   3.302   9.629  0.2415  1.1152  2.7275
11999SOL     OW37437   2.413   7.919   9.919 -0.1800 -0.0521 -0.4217
11999SOL    HW137438   2.493   7.971   9.916  0.0709 -0.3788  0.2777
11999SOL    HW237439   2.429   7.856   9.989 -0.4133 -1.1760 -1.3524
12000SOL     OW37440   6.624   7.194   6.461  0.6339  0.1100  0.3287
12000SOL    HW137441   6.590   7.234   6.382 -0.3590 -1.2431  0.0444
12000SOL    HW237442   6.647   7.105   6.435  0.2616 -0.3629  1.5589
12001SOL     OW37443   7.750   3.018   3.410  0.2272 -0.0145 -0.1378
12001SOL    HW137444   7.723   2.936   3.369 -0.6575 -0.1310  0.6320
12001SOL    HW237445   7.831   3.041   3.366  0.6482 -1.4553 -0.1781
12002SOL     OW37446   3.847   7.028   9.868 -0.4205 -0.6702 -0.0404
12002SOL    HW137447   3.898   7.026   9.949 -0.4819 -1.5042 -0.0096
12002SOL    HW237448   3.764   6.986   9.891 -1.3444  1.0905  0.0362
12003SOL     OW37449   3.239   4.177   3.285  0.1257  0.1358 -0.1014
12003SOL    HW137450   3.220   4.095   3.238 -0.2274  0.6740 -0.9152
12003SOL    HW237451   3.159   4.196   3.334  0.3768 -0.2463  0.4787
12004SOL     OW37452   1.538   4.699   5.350 -0.4145 -0.1261 -0.0747
12004SOL    HW137453   1.597   4.697   5.275  0.3867  1.8421  0.4521
12004SOL    HW237454   1.590   4.663   5.422 -0.7653 -0.8397 -0.1676
12005SOL     OW37455   1.321   1.781   5.695  0.6196  0.0014  0.0427
12005SOL    HW137456   1.258   1.817   5.757  0.0065 -1.3804  0.2688
12005SOL    HW237457   1.343   1.854   5.638 -1.1948  0.5496 -0.0409
12006SOL     OW37458   1.204   2.960   8.473 -0.0202  0.2677  0.8667
12006SOL    HW137459   1.278   3.003   8.517 -0.1102  0.6639  0.6377
12006SOL    HW237460   1.214   2.984   8.381  0.6263 -1.2244  0.5275
12007SOL     OW37461   5.474   2.074   1.862 -0.2631  0.2190 -0.1136
12007SOL    HW137462   5.474   1.991   1.813 -0.7482  1.0074 -1.5023
12007SOL    HW237463   5.517   2.136   1.804  1.4942  0.6368  1.5463
12008SOL     OW37464   1.124   1.391   5.815  0.3964 -0.3208  0.2151
12008SOL    HW137465   1.174   1.357   5.889  0.5898 -0.9838 -0.2123
12008SOL    HW237466   1.111   1.316   5.758 -0.8785 -0.1093  0.1957
12009SOL     OW37467   2.250   0.076   0.699 -0.1521  0.2522 -0.7398
12009SOL    HW137468   2.312   0.118   0.640 -0.4183  1.3154 -0.2770
12009SOL    HW237469   2.302   0.011   0.747  0.4190  0.5560 -0.9453
12010SOL     OW37470   2.324   4.413   4.127 -0.7211  0.2177 -1.0192
12010SOL    HW137471   2.368   4.496   4.107 -0.0034  0.2849  0.7055
12010SOL    HW237472   2.320   4.410   4.223 -0.1720 -2.0343 -1.0190
12011SOL     OW37473   5.185   1.239   6.504 -0.5072  0.4200  0.0675
12011SOL    HW137474   5.275   1.209   6.505 -0.6581 -0.0382 -0.1265
12011SOL    HW237475   5.191   1.333   6.522  0.1544  0.7889 -1.8580
12012SOL     OW37476   4.778   6.220   3.754 -0.0963 -0.2276  0.7707
12012SOL    HW137477   4.860   6.171   3.752 -0.6910 -1.2402  0.4726
12012SOL    HW237478   4.712   6.156   3.780 -1.1720 -0.0289 -1.2336
12013SOL     OW37479   2.342   2.704   5.546 -0.0311  0.4651  0.3630
12013SOL    HW137480   2.296   2.630   5.586  1.1355  0.5725  2.0436
12013SOL    HW237481   2.314   2.780   5.596 -1.5259  1.2959 -1.6051
12014SOL     OW37482   7.008   1.594   1.995  1.0224 -0.0410  0.2995
12014SOL    HW137483   7.067   1.528   1.959  0.6375 -0.2928  0.1257
12014SOL    HW237484   6.921   1.559   1.979  0.8129  0.5509  0.1330
12015SOL     OW37485   1.879   0.329   3.909  0.1730 -0.7704 -0.1121
12015SOL    HW137486   1.860   0.391   3.979  0.8343 -0.8320  0.1336
12015SOL    HW237487   1.882   0.382   3.830  1.6447 -0.3113  0.2199
12016SOL     OW37488   2.827   7.904   1.311  0.2359  0.2173  0.5510
12016SOL    HW137489   2.736   7.887   1.285  0.0279 -0.0114  1.4109
12016SOL    HW237490   2.869   7.818   1.308  0.2671  0.2248  0.7534
12017SOL     OW37491   2.953   0.868   3.597  0.2003  0.1559  0.3438
12017SOL    HW137492   3.028   0.860   3.657  0.7505 -1.3861 -0.4919
12017SOL    HW237493   2.975   0.944   3.542  0.2731  0.8175  1.2591
12018SOL     OW37494   0.930   1.778   6.650 -0.0888  0.2800  0.1191
12018SOL    HW137495   0.940   1.812   6.561  1.3945  0.5990  0.3747
12018SOL    HW237496   0.974   1.693   6.648 -0.2186  0.2022  0.4871
12019SOL     OW37497   6.976   5.012   8.705 -0.4037 -0.5787 -0.2431
12019SOL    HW137498   7.030   5.061   8.766  0.6860 -1.6527 -0.2978
12019SOL    HW237499   6.899   4.986   8.755 -1.5487  2.0129 -0.4947
12020SOL     OW37500   0.001   2.264   0.179  0.0316 -0.2046  0.3089
12020SOL    HW137501   0.038   2.351   0.160 -0.6548  0.1943  0.7663
12020SOL    HW237502   0.064   2.203   0.141  0.0171  0.5146 -0.9179
12021SOL     OW37503   7.925   1.456   1.962 -0.5105 -0.0099 -0.0171
12021SOL    HW137504   8.009   1.481   2.000 -0.2844 -0.5357 -0.1592
12021SOL    HW237505   7.860   1.505   2.013 -0.0863  0.8881 -0.3243
12022SOL     OW37506   7.107   6.791  12.253 -0.5120 -0.2186 -0.1870
12022SOL    HW137507   7.175   6.852  12.281 -0.9166 -0.3824  1.2271
12022SOL    HW237508   7.138   6.757  12.169  1.3002 -0.4984  0.5533
12023SOL     OW37509   2.275   4.279   7.414  0.0350 -0.5320 -0.2107
12023SOL    HW137510   2.243   4.188   7.412 -0.7737 -0.2851  0.4404
12023SOL    HW237511   2.196   4.332   7.399  0.1190  0.1001  1.3069
12024SOL     OW37512   7.276   5.323   4.854  0.5342  0.1353 -0.6803
12024SOL    HW137513   7.208   5.390   4.862  3.1334  2.7990  1.9608
12024SOL    HW237514   7.357   5.373   4.839  2.7570 -2.2035  2.1958
12025SOL     OW37515   7.206   4.864   4.933 -0.2108  0.1348  0.2356
12025SOL    HW137516   7.143   4.805   4.976  0.2900  0.2276  1.1209
12025SOL    HW237517   7.154   4.940   4.909 -0.9264 -0.7739 -1.1815
12026SOL     OW37518   6.190   3.477   3.199 -0.0726  0.1901  0.3384
12026SOL    HW137519   6.103   3.451   3.230  0.7283 -1.5369  1.3275
12026SOL    HW237520   6.197   3.440   3.111 -1.1141  2.2428 -0.6699
12027SOL     OW37521   3.094   3.728   4.470 -0.2449  0.4584  0.3789
12027SOL    HW137522   3.134   3.787   4.406  0.4146 -1.1974 -0.7951
12027SOL    HW237523   3.168   3.686   4.513 -0.6963 -0.8030 -0.0471
12028SOL     OW37524   0.157   4.629  10.951  0.6891  0.0479  0.7462
12028SOL    HW137525   0.142   4.574  11.028  1.2794 -1.8316 -0.4149
12028SOL    HW237526   0.071   4.665  10.930  0.4755  0.3593  2.1099
12029SOL     OW37527   3.627   5.502  11.610  0.4272 -0.0071  0.0871
12029SOL    HW137528   3.593   5.571  11.553 -0.0718  0.0654  0.4617
12029SOL    HW237529   3.603   5.421  11.566  1.3226  0.0587 -0.5286
12030SOL     OW37530   6.641   6.384   2.337 -0.5167 -0.1968 -1.0096
12030SOL    HW137531   6.708   6.316   2.326 -1.2678 -1.0375 -0.5834
12030SOL    HW237532   6.564   6.336   2.368 -0.9015  0.9429 -0.1413
12031SOL     OW37533   4.092   7.172  11.027  0.1635 -0.1670  0.5745
12031SOL    HW137534   4.039   7.127  11.092  0.5429  0.2975  1.2236
12031SOL    HW237535   4.049   7.256  11.014  0.7176  0.2184  1.1155
12032SOL     OW37536   3.138   2.582   1.329  0.1986 -0.2864 -0.4418
12032SOL    HW137537   3.135   2.641   1.255  0.4918  0.0374 -0.1989
12032SOL    HW237538   3.173   2.500   1.293 -1.7914 -0.8848 -1.1431
12033SOL     OW37539   4.277   6.344   8.090  0.0841 -0.3500  0.5941
12033SOL    HW137540   4.265   6.250   8.075  1.5448 -0.8384  2.1316
12033SOL    HW237541   4.275   6.353   8.185 -0.2792  1.2293  0.4611
12034SOL     OW37542   5.082   0.668  11.601  0.3988  0.1320  0.6021
12034SOL    HW137543   5.153   0.656  11.537 -1.2342 -1.3954 -1.0624
12034SOL    HW237544   5.071   0.763  11.607  1.7893  0.3554 -0.0053
12035SOL     OW37545   0.075   2.524   8.019  0.0521 -0.0477  0.2664
12035SOL    HW137546   0.053   2.528   8.112  1.7895  0.7123  0.6913
12035SOL    HW237547   0.028   2.598   7.980  0.5433  0.5806  0.8401
12036SOL     OW37548   1.560   5.817   5.965  0.3011  0.4255  0.1510
12036SOL    HW137549   1.587   5.824   5.873 -1.2879  0.9183 -0.3055
12036SOL    HW237550   1.469   5.846   5.965 -0.4472 -1.6893  1.5108
12037SOL     OW37551   4.502   4.406   5.666 -0.2506 -0.9218  0.3599
12037SOL    HW137552   4.589   4.426   5.700 -0.1564 -2.3943  1.0572
12037SOL    HW237553   4.509   4.420   5.572 -0.1866  2.1174  0.7329
12038SOL     OW37554   6.072   2.038   4.440 -0.2378 -0.4018  0.0438
12038SOL    HW137555   6.017   2.011   4.367  0.6881  0.8428 -1.1510
12038SOL    HW237556   6.038   2.123   4.467  1.3733  0.6471 -1.0755
12039SOL     OW37557   0.877   3.806   4.529 -0.1280  0.0526 -0.4743
12039SOL    HW137558   0.789   3.769   4.524 -1.0904  2.1493 -0.1040
12039SOL    HW237559   0.932   3.742   4.485 -2.0377 -0.7246 -1.8828
12040SOL     OW37560   1.422   0.478   7.426  0.5045  0.1999  0.0756
12040SOL    HW137561   1.357   0.441   7.367 -0.0236  1.2416 -0.0135
12040SOL    HW237562   1.507   0.453   7.388  0.1809 -1.1770  0.2026
12041SOL     OW37563   6.532   1.118  10.315  0.1763 -0.1280  0.1033
12041SOL    HW137564   6.513   1.034  10.273 -1.3084  0.4236 -0.3693
12041SOL    HW237565   6.573   1.171  10.246  1.1021 -0.4454  0.3984
12042SOL     OW37566   0.316   2.623   1.142 -0.3973 -0.4266 -0.2901
12042SOL    HW137567   0.393   2.671   1.111  1.6776 -2.0547  1.9200
12042SOL    HW237568   0.268   2.601   1.063  0.8471  1.5133 -1.6802
12043SOL     OW37569   4.777   0.592   8.808 -0.1699  0.0737 -0.1097
12043SOL    HW137570   4.775   0.679   8.847 -2.1604 -0.4796  1.1479
12043SOL    HW237571   4.848   0.547   8.853 -0.8517  0.2301  1.1417
12044SOL     OW37572   3.353   0.273   6.244 -0.0312  0.9660 -0.1056
12044SOL    HW137573   3.380   0.186   6.215 -1.9018  0.2887  0.0885
12044SOL    HW237574   3.349   0.324   6.163 -0.1731  0.5127 -0.3904
12045SOL     OW37575   2.614   5.715   4.749  0.2936 -0.0513  0.3243
12045SOL    HW137576   2.697   5.720   4.796  1.3825  0.3225 -1.5120
12045SOL    HW237577   2.614   5.628   4.709 -0.8406 -0.5517  1.3636
12046SOL     OW37578   6.576   7.029   9.291 -0.0318  0.0861 -0.2600
12046SOL    HW137579   6.511   7.030   9.362  0.1674 -0.6555 -0.0542
12046SOL    HW237580   6.533   7.075   9.219 -0.4126  0.4570  0.1956
12047SOL     OW37581   2.396   4.099   4.420  0.0696 -0.1516  0.0687
12047SOL    HW137582   2.307   4.132   4.407  0.9272  2.6614  0.8164
12047SOL    HW237583   2.410   4.039   4.346 -1.7901  0.7552 -1.0852
12048SOL     OW37584   7.818   0.417   1.069  0.2244 -0.2860  0.2939
12048SOL    HW137585   7.795   0.364   1.145 -0.1230  1.2450  1.2906
12048SOL    HW237586   7.910   0.438   1.081  1.3477 -3.2886 -1.7887
12049SOL     OW37587   4.881   1.003   7.267  0.1502  0.0086 -0.1635
12049SOL    HW137588   4.786   1.016   7.255  0.1196 -0.3994 -0.3785
12049SOL    HW237589   4.912   1.088   7.298 -0.5550 -0.3067  1.5013
12050SOL     OW37590   5.356   5.192  10.196  0.0741 -0.9589  0.1219
12050SOL    HW137591   5.380   5.274  10.153 -1.3238 -0.2975  0.5384
12050SOL    HW237592   5.434   5.137  10.187  0.9081  0.2610 -0.5104
12051SOL     OW37593   6.722   7.743   0.492  0.9299 -0.6825  0.3430
12051SOL    HW137594   6.756   7.833   0.485 -0.3976 -0.2407 -1.0580
12051SOL    HW237595   6.635   7.754   0.530  1.2019 -1.5046  1.2173
12052SOL     OW37596   2.850   7.097   7.155 -0.1883 -0.1690  0.1434
12052SOL    HW137597   2.799   7.173   7.183  0.9609  0.9038 -0.5609
12052SOL    HW237598   2.919   7.134   7.100  0.7069 -1.6785  0.2046
12053SOL     OW37599   6.809   3.798   1.053  0.0052  0.4834  0.3967
12053SOL    HW137600   6.805   3.891   1.034 -0.3884  0.7040  1.5160
12053SOL    HW237601   6.735   3.760   1.004 -0.3077  0.8746  0.5627
12054SOL     OW37602   1.563   5.429   0.285 -0.2135  0.2818  0.5140
12054SOL    HW137603   1.502   5.433   0.212 -0.8827  0.3019  1.0640
12054SOL    HW237604   1.640   5.384   0.250 -0.6040  0.1219 -0.1446
12055SOL     OW37605   5.593   1.288   3.160 -0.4338 -0.0071  0.2605
12055SOL    HW137606   5.653   1.335   3.217  0.2283 -0.5744  0.0434
12055SOL    HW237607   5.542   1.356   3.116  1.9271  0.6491 -1.6396
12056SOL     OW37608   5.694   5.792  11.043  0.1622  0.3498  0.1024
12056SOL    HW137609   5.607   5.769  11.073 -0.5646 -0.5135 -2.3979
12056SOL    HW237610   5.683   5.878  11.002  1.0995  1.4598  2.0319
12057SOL     OW37611   2.052   5.447   2.021  0.1118 -0.3283  0.3810
12057SOL    HW137612   2.119   5.389   1.985  0.2091 -0.1951  0.3459
12057SOL    HW237613   2.100   5.506   2.078  0.4099  1.3680 -1.5275
12058SOL     OW37614   6.246   0.793   1.982  0.9108  0.1279  0.0808
12058SOL    HW137615   6.309   0.863   1.966  0.6099  0.2669 -0.5385
12058SOL    HW237616   6.167   0.822   1.937  1.0112 -0.9516 -0.8464
12059SOL     OW37617   2.376   3.157   2.335 -0.1247  0.2192 -0.0174
12059SOL    HW137618   2.437   3.224   2.304  0.2809  0.1354  0.5847
12059SOL    HW237619   2.326   3.199   2.404  0.6076 -0.2866  0.8460
12060SOL     OW37620   0.589   4.841   8.934 -0.1540 -0.2825 -0.1342
12060SOL    HW137621   0.641   4.920   8.922  0.7341 -0.7872  0.3501
12060SOL    HW237622   0.554   4.849   9.022 -0.6973 -0.0764 -0.3596
12061SOL     OW37623   6.668   0.807   1.938 -0.3321  0.4160 -0.2557
12061SOL    HW137624   6.664   0.761   2.022  0.4810 -0.5001 -0.7025
12061SOL    HW237625   6.652   0.899   1.960 -3.5121 -0.2002  0.4949
12062SOL     OW37626   5.410   3.206  10.245  0.3603 -0.2348 -0.2089
12062SOL    HW137627   5.320   3.171  10.243  0.6462 -0.9719 -0.7314
12062SOL    HW237628   5.465   3.128  10.242  1.0520  0.0760  2.1545
12063SOL     OW37629   6.113   4.136   4.791  0.0938 -0.4166  0.3084
12063SOL    HW137630   6.086   4.228   4.791  0.5968 -0.2639  0.3494
12063SOL    HW237631   6.209   4.140   4.790  0.3420 -0.8393  4.1658
12064SOL     OW37632   7.304   3.118   1.692 -0.1049  0.1062  0.0513
12064SOL    HW137633   7.367   3.187   1.715 -0.8372  0.3049  1.6268
12064SOL    HW237634   7.246   3.113   1.768 -1.7105 -0.4015 -1.1572
12065SOL     OW37635   7.384   6.530  10.435  0.0604  0.2982  0.1431
12065SOL    HW137636   7.318   6.465  10.412  1.2955 -0.9429 -0.0026
12065SOL    HW237637   7.467   6.482  10.435  0.9837  1.8151  0.2876
12066SOL     OW37638   7.001   1.211   9.171 -0.2299  0.5929 -0.4493
12066SOL    HW137639   7.047   1.233   9.252  1.0490 -1.2012 -0.6407
12066SOL    HW237640   7.039   1.128   9.143 -2.4944 -0.1745 -1.4971
12067SOL     OW37641   1.825   1.633   9.211 -0.4114 -0.6586 -0.5699
12067SOL    HW137642   1.763   1.700   9.184 -2.6570 -2.0833  0.7693
12067SOL    HW237643   1.782   1.586   9.282  3.6229  0.4639  3.0606
12068SOL     OW37644   3.374   2.116   2.164  0.4132  0.3870  0.2233
12068SOL    HW137645   3.396   2.087   2.252 -1.2381  1.5615  1.0716
12068SOL    HW237646   3.427   2.060   2.106  1.8129 -0.1489  1.9422
12069SOL     OW37647   7.338   6.318   7.948  0.0137  0.3938  0.0433
12069SOL    HW137648   7.394   6.241   7.939 -0.2423  0.3159 -1.1149
12069SOL    HW237649   7.261   6.287   7.995 -0.5770 -0.3451 -1.3623
12070SOL     OW37650   2.404   6.763   9.172  0.2373 -0.0440 -0.2767
12070SOL    HW137651   2.426   6.819   9.097 -1.4922  1.3335  0.1737
12070SOL    HW237652   2.312   6.740   9.158  1.0349 -3.4497 -0.7941
12071SOL     OW37653   2.430   1.582   4.419 -0.4787  0.0090  0.1745
12071SOL    HW137654   2.374   1.518   4.374 -0.2640 -0.6435  0.8086
12071SOL    HW237655   2.466   1.534   4.494 -0.7108  1.0237  0.9651
12072SOL     OW37656   0.921   7.431   9.103 -0.4267  0.5711 -0.2955
12072SOL    HW137657   0.844   7.447   9.048 -1.5101 -0.1117  0.9358
12072SOL    HW237658   0.901   7.476   9.185  0.9736  1.2449 -0.2964
12073SOL     OW37659   0.171   5.638   2.105  0.0017  0.4551  0.5881
12073SOL    HW137660   0.179   5.721   2.058 -0.3502  0.8745  1.2520
12073SOL    HW237661   0.094   5.596   2.065 -0.0834  0.6469  0.5496
12074SOL     OW37662   7.470   2.915   5.096 -0.3101  0.4884 -0.1967
12074SOL    HW137663   7.552   2.867   5.108 -0.3444  0.7394  1.2215
12074SOL    HW237664   7.412   2.853   5.054 -0.7359 -1.2193  2.6276
12075SOL     OW37665   6.704   4.986   0.620 -0.1059  0.0916 -0.0509
12075SOL    HW137666   6.788   4.947   0.593  1.5453  1.2946  2.8985
12075SOL    HW237667   6.673   4.931   0.691 -2.0469 -0.4793 -1.2586
12076SOL     OW37668   2.504   2.414   0.167 -0.2547 -0.3123  0.0658
12076SOL    HW137669   2.525   2.424   0.260  0.2167  0.6753 -0.1338
12076SOL    HW237670   2.568   2.351   0.135 -0.6379 -0.9241  0.4736
12077SOL     OW37671   4.883   3.450  10.203  0.0552 -0.7152 -0.0449
12077SOL    HW137672   4.864   3.538  10.236  1.5257 -1.0073  1.7557
12077SOL    HW237673   4.900   3.462  10.110 -1.2374  0.6499 -0.1396
12078SOL     OW37674   1.157   2.398   8.245  0.8278 -0.2499  0.1961
12078SOL    HW137675   1.154   2.302   8.246  0.5364 -0.2544 -0.7086
12078SOL    HW237676   1.074   2.424   8.207  0.5610  0.3978  1.1918
12079SOL     OW37677   6.403   4.431   3.861  0.0770 -0.5197 -0.3621
12079SOL    HW137678   6.371   4.343   3.846 -0.1058 -0.2905 -1.4142
12079SOL    HW237679   6.380   4.479   3.781 -0.0081  0.5283  0.2688
12080SOL     OW37680   4.855   5.177   5.897  0.0634 -0.8702  0.3737
12080SOL    HW137681   4.855   5.103   5.836 -0.1204 -0.2837 -0.3547
12080SOL    HW237682   4.891   5.250   5.846 -0.6379 -0.2236  0.7794
12081SOL     OW37683   5.690   4.295   1.317 -0.7190  0.1582  0.3545
12081SOL    HW137684   5.779   4.320   1.342 -0.5167 -1.4813  1.4505
12081SOL    HW237685   5.634   4.355   1.365 -0.2732  2.3608 -1.6579
12082SOL     OW37686   2.639   0.554   3.063  0.1442  0.3282 -0.3194
12082SOL    HW137687   2.591   0.628   3.025  1.8399  2.4449  1.3631
12082SOL    HW237688   2.621   0.560   3.157 -0.9820 -2.4968 -0.2666
12083SOL     OW37689   7.788   2.644   7.950  0.1177  0.2110 -0.7462
12083SOL    HW137690   7.766   2.693   7.871 -0.0761  1.4831  0.0788
12083SOL    HW237691   7.707   2.597   7.972 -0.2056  0.8369 -0.5976
12084SOL     OW37692   2.531   7.931   5.691  0.0940  0.6881  0.1528
12084SOL    HW137693   2.447   7.915   5.734 -0.2499 -2.0988 -1.3487
12084SOL    HW237694   2.508   7.949   5.599  1.0947  1.0855 -0.0319
12085SOL     OW37695   6.587   7.559  11.332  0.4103 -0.0044  0.8622
12085SOL    HW137696   6.594   7.534  11.424 -1.1647  1.2383  1.3606
12085SOL    HW237697   6.673   7.538  11.295  1.0841 -0.4993  2.6191
12086SOL     OW37698   5.190   0.616   5.027 -0.2513  0.3994 -0.5498
12086SOL    HW137699   5.156   0.527   5.013  0.9499 -0.1976  0.1652
12086SOL    HW237700   5.133   0.672   4.973  0.0742 -0.9938 -2.4627
12087SOL     OW37701   7.698   6.150   0.409  0.2281  0.1657  0.4638
12087SOL    HW137702   7.710   6.097   0.330  1.3972 -1.3934  1.6197
12087SOL    HW237703   7.623   6.111   0.453 -0.3045  0.9137  0.2317
12088SOL     OW37704   7.748   0.164  11.664 -0.8244  0.5762  0.1797
12088SOL    HW137705   7.673   0.157  11.723 -1.9443  3.3895 -0.7071
12088SOL    HW237706   7.709   0.191  11.580  0.9794 -0.2908 -0.9944
12089SOL     OW37707   4.711   5.740   2.235 -0.3735 -0.2797  0.1023
12089SOL    HW137708   4.751   5.653   2.227  0.9066  0.3904 -1.5683
12089SOL    HW237709   4.640   5.728   2.298  3.0930 -1.3429  4.2548
12090SOL     OW37710   1.626   0.116   7.054  0.7847 -0.0523  0.1509
12090SOL    HW137711   1.572   0.074   7.121 -1.1574 -0.9031 -1.8078
12090SOL    HW237712   1.669   0.044   7.008  2.3811  0.5333  0.6494
12091SOL     OW37713   1.789   1.873   2.095 -0.1946 -0.1196  0.2466
12091SOL    HW137714   1.857   1.819   2.055 -0.0132  1.0390 -1.1186
12091SOL    HW237715   1.786   1.952   2.040 -1.1675  0.7914  1.5431
12092SOL     OW37716   0.474   1.870   3.816  0.5054 -0.0529  0.6388
12092SOL    HW137717   0.527   1.916   3.881  0.5428 -0.3780  0.8355
12092SOL    HW237718   0.532   1.802   3.781 -0.0195 -0.8996  1.3928
12093SOL     OW37719   3.385   1.360   0.392  0.5393  0.4940 -0.0097
12093SOL    HW137720   3.367   1.371   0.298  0.6936 -2.0349 -0.4062
12093SOL    HW237721   3.301   1.377   0.434  0.0279 -0.0189 -0.7866
12094SOL     OW37722   3.048   0.776   6.670 -0.2657 -0.1489  0.2269
12094SOL    HW137723   3.039   0.781   6.765  0.2196  0.2829  0.2521
12094SOL    HW237724   3.117   0.839   6.648  2.0130 -2.5672 -0.0748
12095SOL     OW37725   1.520   2.106   0.833 -0.1000 -0.3009  0.1973
12095SOL    HW137726   1.605   2.120   0.875 -0.4000  0.8530  0.4407
12095SOL    HW237727   1.471   2.053   0.895  1.3620 -3.4613 -1.1193
12096SOL     OW37728   4.244   0.568   3.567  0.1072  0.1148 -0.4474
12096SOL    HW137729   4.326   0.540   3.528  0.7954  0.3699  0.7734
12096SOL    HW237730   4.255   0.661   3.584 -0.5844  0.2364 -0.6244
12097SOL     OW37731   0.950   1.557   5.504 -0.3252 -0.1804 -0.0114
12097SOL    HW137732   0.905   1.574   5.587  0.6402  2.3730  0.0705
12097SOL    HW237733   0.884   1.575   5.437 -0.0034  1.8008  0.1504
12098SOL     OW37734   7.348   4.822  12.273 -0.8738 -0.0505  0.2538
12098SOL    HW137735   7.328   4.875  12.196 -0.9607  0.7225  0.7922
12098SOL    HW237736   7.312   4.735  12.253  1.8659 -0.8304 -1.8943
12099SOL     OW37737   4.855   0.870   0.824  0.0956 -0.5341 -0.0435
12099SOL    HW137738   4.824   0.885   0.735 -2.6920 -0.5006  0.8475
12099SOL    HW237739   4.811   0.789   0.852  1.5179 -0.9795  1.0781
12100SOL     OW37740   4.660   5.951  11.636  0.4558  0.2848 -0.0405
12100SOL    HW137741   4.629   6.029  11.683  0.4316 -0.1666  0.7117
12100SOL    HW237742   4.622   5.877  11.685  1.1329 -0.2212 -0.2607
12101SOL     OW37743   3.585   2.308   8.309  0.2260 -0.0271  0.0364
12101SOL    HW137744   3.538   2.303   8.392  1.2696  1.4939  0.7789
12101SOL    HW237745   3.521   2.281   8.243 -0.6014 -1.3633  1.3127
12102SOL     OW37746   0.538   5.425   0.335  0.4852 -0.1604 -0.1784
12102SOL    HW137747   0.474   5.490   0.305  0.8796  0.0038 -0.6885
12102SOL    HW237748   0.616   5.443   0.282  0.5334 -1.1799 -0.4631
12103SOL     OW37749   7.855   4.232  11.232 -0.0867  0.5391 -0.0361
12103SOL    HW137750   7.853   4.295  11.160 -0.4882  1.5365  0.8208
12103SOL    HW237751   7.821   4.151  11.193  1.0118  0.6577 -1.3109
12104SOL     OW37752   2.366   2.832   4.598  0.3249 -0.0390  0.4339
12104SOL    HW137753   2.271   2.822   4.601  0.0775  2.1517  0.9757
12104SOL    HW237754   2.390   2.866   4.683  1.7926 -1.6034  0.7143
12105SOL     OW37755   4.349   1.908   9.311  0.2461  0.3966  0.8652
12105SOL    HW137756   4.403   1.874   9.239 -0.7737  1.2700 -0.3676
12105SOL    HW237757   4.351   2.003   9.299 -0.9105  0.4846  1.2655
12106SOL     OW37758   1.287   5.286   8.132  0.1564 -0.2041  0.1866
12106SOL    HW137759   1.204   5.290   8.180 -0.5370 -1.3273 -0.8535
12106SOL    HW237760   1.335   5.215   8.174 -0.4609 -1.2042 -0.7305
12107SOL     OW37761   2.202   4.759   8.312 -0.4307  0.0675  0.0483
12107SOL    HW137762   2.135   4.800   8.257  0.9827 -0.9988 -2.6620
12107SOL    HW237763   2.227   4.680   8.264  1.6881 -0.3677  1.7304
12108SOL     OW37764   0.673   6.328   1.475 -0.4908 -0.8771  0.2998
12108SOL    HW137765   0.634   6.317   1.389 -1.3551  0.3308  0.5075
12108SOL    HW237766   0.687   6.239   1.507  3.5931 -1.5705 -2.6269
12109SOL     OW37767   7.813   7.375   6.207  0.4319  0.1105 -0.1234
12109SOL    HW137768   7.726   7.410   6.226  0.6126  0.8356 -0.6185
12109SOL    HW237769   7.799   7.311   6.137  0.2635  0.0016  0.0070
12110SOL     OW37770   3.101   2.980   3.980  0.9664  0.4037 -0.1995
12110SOL    HW137771   3.150   2.903   3.950  0.5005  0.3826 -0.9077
12110SOL    HW237772   3.154   3.015   4.052  0.5226 -1.3664  1.0766
12111SOL     OW37773   4.288   5.043   6.049 -0.1487 -0.0361 -0.2809
12111SOL    HW137774   4.363   5.085   6.091  0.1638  1.8686 -2.5713
12111SOL    HW237775   4.219   5.044   6.116  0.6063  2.0166  0.5428
12112SOL     OW37776   0.712   0.293   7.547  0.1640 -0.0966  0.4337
12112SOL    HW137777   0.772   0.298   7.472  0.9154 -1.2208  0.9219
12112SOL    HW237778   0.726   0.205   7.582 -1.3199 -0.1440  0.9664
12113SOL     OW37779   6.967   3.485   4.756 -0.5071 -0.3637  0.3151
12113SOL    HW137780   6.947   3.393   4.772 -0.8498 -0.2444  0.6046
12113SOL    HW237781   6.893   3.517   4.705  0.4497 -0.6691 -1.3520
12114SOL     OW37782   0.544   2.190   3.919  0.0504  0.6055 -0.3764
12114SOL    HW137783   0.532   2.281   3.944  1.1625  0.7825 -0.4571
12114SOL    HW237784   0.563   2.145   4.001  0.1951  0.5659 -0.4324
12115SOL     OW37785   4.541   0.224   2.048  0.0376 -0.2709  0.4178
12115SOL    HW137786   4.478   0.223   1.976  0.5032 -0.0720  0.0047
12115SOL    HW237787   4.611   0.165   2.020  0.8088  0.7263  0.1641
12116SOL     OW37788   6.318   5.724   8.481  0.4341 -0.3363  0.0497
12116SOL    HW137789   6.346   5.685   8.564 -1.9071 -3.6851 -0.5359
12116SOL    HW237790   6.363   5.673   8.414  0.3254  0.6388 -0.7881
12117SOL     OW37791   4.892   5.265  11.757 -0.0296 -0.1773  0.2743
12117SOL    HW137792   4.943   5.201  11.807 -0.4415 -0.2558  0.6003
12117SOL    HW237793   4.801   5.240  11.773 -0.2318  1.0486  1.1373
12118SOL     OW37794   0.885   0.970   3.189  0.4003 -0.1828 -0.6782
12118SOL    HW137795   0.913   0.889   3.234 -0.5269  0.0674  0.3834
12118SOL    HW237796   0.943   1.037   3.225 -0.3076  0.0081  0.1445
12119SOL     OW37797   0.770   1.810   4.814 -0.5492 -0.3343 -0.3545
12119SOL    HW137798   0.704   1.878   4.828  1.4830  1.7975 -0.5531
12119SOL    HW237799   0.836   1.852   4.758  2.0354 -1.6000  1.5419
12120SOL     OW37800   5.364   1.192   2.898  0.2843 -0.2943  0.0317
12120SOL    HW137801   5.381   1.274   2.851 -2.4702 -0.8755 -2.2788
12120SOL    HW237802   5.433   1.133   2.869 -0.4651 -0.1675 -2.2655
12121SOL     OW37803   5.944   4.436  10.739 -0.1931 -0.6306 -0.3741
12121SOL    HW137804   5.950   4.352  10.785 -1.2788 -1.0509 -0.9692
12121SOL    HW237805   5.989   4.420  10.656  0.5062 -0.3084 -0.0579
12122SOL     OW37806   4.526   6.606   6.369 -0.1846 -0.2851 -0.1057
12122SOL    HW137807   4.506   6.532   6.426 -0.7885 -2.0854 -2.4828
12122SOL    HW237808   4.449   6.615   6.313  0.6488  0.8927 -1.1328
12123SOL     OW37809   4.909   4.222   3.750 -0.1277 -0.4852  0.6350
12123SOL    HW137810   4.841   4.272   3.703 -0.9155 -2.6106 -0.6119
12123SOL    HW237811   4.975   4.288   3.773 -0.6074  0.9900 -1.8160
12124SOL     OW37812   4.018   5.357   4.590 -0.0420 -0.0352 -0.6093
12124SOL    HW137813   4.058   5.295   4.651 -0.1737 -0.5469 -1.0390
12124SOL    HW237814   4.092   5.390   4.539  0.1521  0.8370  0.2038
12125SOL     OW37815   5.045   0.605   0.439 -0.2471  0.3804 -0.4463
12125SOL    HW137816   5.052   0.527   0.384  1.0942  0.1162  0.0535
12125SOL    HW237817   4.954   0.606   0.469 -0.3200 -0.9121 -0.5722
12126SOL     OW37818   7.635   0.157   9.596  0.0806  0.2257 -0.1282
12126SOL    HW137819   7.721   0.115   9.591 -0.4341 -1.1626  1.5515
12126SOL    HW237820   7.573   0.085   9.581 -0.8391  1.3564 -2.2341
12127SOL     OW37821   7.822   6.040  12.296  0.2905 -0.1944  0.1419
12127SOL    HW137822   7.913   6.027  12.323  0.2480  0.0047  0.3891
12127SOL    HW237823   7.777   5.960  12.323  0.1849  0.1270  0.9655
12128SOL     OW37824   2.476   3.506   2.660 -0.2756 -0.3816 -0.0043
12128SOL    HW137825   2.540   3.553   2.608 -0.2627 -1.2089 -0.7538
12128SOL    HW237826   2.459   3.564   2.735  0.6871  0.2293 -0.2386
12129SOL     OW37827   1.234   1.445   9.283 -0.3294  0.4335 -0.1153
12129SOL    HW137828   1.303   1.446   9.217  1.6948 -2.0968  1.7727
12129SOL    HW237829   1.167   1.388   9.247 -0.5089  1.2094 -1.0608
12130SOL     OW37830   0.525   0.374   4.952 -0.0458 -0.2068 -0.6397
12130SOL    HW137831   0.430   0.370   4.949 -0.0737  0.3615 -0.6877
12130SOL    HW237832   0.551   0.404   4.865  0.2158 -0.9047 -0.8094
12131SOL     OW37833   5.632   4.596   9.177  0.0619  0.3051 -0.4282
12131SOL    HW137834   5.662   4.539   9.247 -0.8713  0.9194  0.5129
12131SOL    HW237835   5.615   4.680   9.221 -1.7395  0.3505 -1.1130
12132SOL     OW37836   2.665   4.352  12.174 -0.2417  0.0351  0.1688
12132SOL    HW137837   2.724   4.368  12.100  0.7538 -1.1441  0.6637
12132SOL    HW237838   2.685   4.422  12.236  1.6201 -1.0300  0.8708
12133SOL     OW37839   2.402   5.308  10.857 -0.4211 -0.4119 -0.0321
12133SOL    HW137840   2.353   5.384  10.825  0.5960 -0.0720 -0.8336
12133SOL    HW237841   2.463   5.288  10.786 -0.0279 -1.3956  0.5750
12134SOL     OW37842   5.724   3.785   7.064 -0.3598  0.5188  0.0669
12134SOL    HW137843   5.716   3.731   7.143 -2.6052  0.4690 -0.1232
12134SOL    HW237844   5.726   3.723   6.992 -0.1538  0.6173 -0.0129
12135SOL     OW37845   2.355   0.570   3.555 -0.2870 -0.2963  0.3631
12135SOL    HW137846   2.398   0.556   3.639  0.6923 -0.2195 -0.1011
12135SOL    HW237847   2.272   0.612   3.576  1.3107  2.7249  1.1121
12136SOL     OW37848   0.704   1.673   5.698 -0.0456  0.0285 -0.0596
12136SOL    HW137849   0.795   1.681   5.727 -0.1005 -1.1616  0.5035
12136SOL    HW237850   0.664   1.757   5.721  0.8634  0.5099 -0.1863
12137SOL     OW37851   6.245   7.166   2.751 -0.2458  0.4086 -0.1806
12137SOL    HW137852   6.153   7.193   2.743  0.1178  2.1372  0.8873
12137SOL    HW237853   6.289   7.213   2.680  0.2448  2.0306  1.1259
12138SOL     OW37854   1.553   4.755   0.368  0.6362 -1.2734  0.2106
12138SOL    HW137855   1.623   4.796   0.317  0.6520 -0.6432  0.7259
12138SOL    HW237856   1.551   4.665   0.337  1.1098 -1.0789 -0.4093
12139SOL     OW37857   0.522   6.105   9.105  0.1789 -0.3455  0.4731
12139SOL    HW137858   0.449   6.166   9.115 -0.3158 -0.4068 -1.9735
12139SOL    HW237859   0.601   6.159   9.114 -0.2288  0.2521  0.4853
12140SOL     OW37860   4.524   0.504  12.295 -0.6316 -0.4881  0.0894
12140SOL    HW137861   4.459   0.561  12.336 -0.0688 -0.7439  1.3918
12140SOL    HW237862   4.479   0.420  12.286 -1.3252  0.0118 -1.4541
12141SOL     OW37863   5.754   4.345   8.683 -0.0961 -0.0553  0.2771
12141SOL    HW137864   5.716   4.432   8.694 -0.5768 -0.0699 -1.0668
12141SOL    HW237865   5.735   4.322   8.592  0.0057 -1.5760  0.6142
12142SOL     OW37866   2.065   2.562  11.926  0.0678  0.5311  0.1971
12142SOL    HW137867   2.111   2.517  11.855 -1.7055 -1.8277  0.4220
12142SOL    HW237868   1.976   2.576  11.891 -0.2629  1.1596  1.2462
12143SOL     OW37869   7.526   4.185   6.884 -0.2261  0.1474 -0.0768
12143SOL    HW137870   7.436   4.215   6.875  0.0009  1.6356  1.8639
12143SOL    HW237871   7.579   4.264   6.871  0.6083 -0.0750  1.7244
12144SOL     OW37872   7.913   1.100   8.971  0.4132 -0.1640 -0.0226
12144SOL    HW137873   7.864   1.137   8.898 -1.3809 -1.5515  0.4066
12144SOL    HW237874   7.949   1.018   8.937  0.7171 -0.1445  0.2443
12145SOL     OW37875   0.816   5.808   7.060 -0.0521 -0.1274  0.0643
12145SOL    HW137876   0.804   5.883   7.003 -0.4273  0.3891  0.8138
12145SOL    HW237877   0.847   5.845   7.143  2.5030 -1.0129 -0.3994
12146SOL     OW37878   5.586   5.268   6.184 -0.4280  0.5710 -0.1824
12146SOL    HW137879   5.572   5.174   6.197  1.1852  0.5227  1.7117
12146SOL    HW237880   5.519   5.310   6.239  0.8702  0.4342  1.6040
12147SOL     OW37881   1.464   0.613  10.406 -0.1411  0.1102  0.1122
12147SOL    HW137882   1.385   0.666  10.396 -0.3303 -0.0320  0.7569
12147SOL    HW237883   1.448   0.536  10.353 -0.4475  0.0720  0.2573
12148SOL     OW37884   6.026   2.347   4.194 -0.0799  0.0626  0.2237
12148SOL    HW137885   6.054   2.380   4.108  1.2998  1.9726  1.3330
12148SOL    HW237886   5.997   2.425   4.241 -2.4370 -1.1793  0.9839
12149SOL     OW37887   2.987   6.461  12.289 -0.0192  0.4141 -0.0667
12149SOL    HW137888   3.042   6.440  12.364 -0.4093 -0.6438 -0.0571
12149SOL    HW237889   2.898   6.446  12.319 -0.2714  1.3350 -0.3254
12150SOL     OW37890   4.755   2.910  11.599 -0.2341 -0.0722  0.2281
12150SOL    HW137891   4.836   2.860  11.589  0.0795  0.1887  1.3335
12150SOL    HW237892   4.691   2.846  11.628  0.0873  0.0881  1.3272
12151SOL     OW37893   2.957   6.011  10.359 -0.3744  0.6620  0.1795
12151SOL    HW137894   3.019   6.080  10.381 -0.8501  1.1555 -0.0227
12151SOL    HW237895   2.983   5.937  10.414  0.8330  0.6310 -0.4229
12152SOL     OW37896   7.963   1.367   7.950 -0.2254  0.3205 -0.2275
12152SOL    HW137897   7.919   1.445   7.919 -0.1872  1.1948  1.7665
12152SOL    HW237898   7.896   1.320   8.000  0.7042  1.0484  1.7922
12153SOL     OW37899   6.018   7.067   1.522  0.3293 -0.2197  0.2594
12153SOL    HW137900   6.006   7.149   1.474  0.8811 -0.3161 -0.0481
12153SOL    HW237901   5.939   7.059   1.576  0.4119  0.6716  0.5280
12154SOL     OW37902   7.110   6.450   7.889  0.1496 -0.8159 -0.4080
12154SOL    HW137903   7.092   6.384   7.823  2.0541 -1.8190  0.0138
12154SOL    HW237904   7.205   6.447   7.902 -0.1654 -0.8632  2.5687
12155SOL     OW37905   6.724   2.119  12.202 -0.4049  0.0903  0.5669
12155SOL    HW137906   6.636   2.147  12.174  0.4640  2.1163 -0.3653
12155SOL    HW237907   6.780   2.194  12.180  1.7162 -1.5049  0.2955
12156SOL     OW37908   0.881   4.854   9.160  0.1031 -0.2412  0.5651
12156SOL    HW137909   0.846   4.767   9.178  1.4867 -0.4961  2.3095
12156SOL    HW237910   0.880   4.861   9.064 -1.9136 -1.3340  0.4563
12157SOL     OW37911   1.131   6.857   8.153 -0.5294 -0.6845  0.4671
12157SOL    HW137912   1.189   6.898   8.218 -0.4861  0.0680 -0.0275
12157SOL    HW237913   1.044   6.866   8.190 -0.5662  0.2484  0.1854
12158SOL     OW37914   5.650   5.579   1.828  0.6404 -0.8544 -0.2184
12158SOL    HW137915   5.740   5.596   1.800 -0.2180  0.8361 -2.1908
12158SOL    HW237916   5.599   5.579   1.747 -1.4481  0.4298  1.0106
12159SOL     OW37917   0.566   6.753   9.933 -0.5238 -0.0069 -0.3136
12159SOL    HW137918   0.602   6.819   9.991  1.5918 -1.0062 -0.3912
12159SOL    HW237919   0.579   6.789   9.845 -0.3946 -0.0467 -0.3109
12160SOL     OW37920   7.962   0.210   6.467  0.0418  0.4404  0.2279
12160SOL    HW137921   8.012   0.213   6.549 -1.4387  0.8834  1.1534
12160SOL    HW237922   7.905   0.133   6.477 -0.0102  0.3844 -0.4750
12161SOL     OW37923   5.766   4.459  11.783 -0.8040 -0.4251 -0.0479
12161SOL    HW137924   5.688   4.438  11.836 -0.8269 -0.2632 -0.0148
12161SOL    HW237925   5.748   4.547  11.749 -1.4147 -1.0847 -1.4759
12162SOL     OW37926   4.808   6.468  11.889  0.1766 -0.3296  0.5380
12162SOL    HW137927   4.719   6.488  11.861  0.3579 -1.4639 -0.9741
12162SOL    HW237928   4.853   6.552  11.889 -1.4215  0.7228  3.6892
12163SOL     OW37929   2.200   5.602   1.366 -0.3884 -0.2730 -0.3309
12163SOL    HW137930   2.291   5.632   1.363  0.0078 -1.4412 -0.6493
12163SOL    HW237931   2.183   5.588   1.460 -0.0135 -0.7044 -0.3256
12164SOL     OW37932   3.803   0.682   3.736 -0.2179  0.4681  0.2100
12164SOL    HW137933   3.808   0.612   3.801 -1.5766 -0.4066 -0.5915
12164SOL    HW237934   3.881   0.736   3.753  0.4513 -0.7980  1.3241
12165SOL     OW37935   1.131   7.309   4.067 -0.1297 -0.2015  0.0415
12165SOL    HW137936   1.049   7.261   4.062 -1.1241  1.5016 -1.2032
12165SOL    HW237937   1.123   7.364   4.145  0.3218 -0.8172  0.5383
12166SOL     OW37938   5.653   4.877   0.071  0.0351 -0.2505 -0.0087
12166SOL    HW137939   5.620   4.928  -0.003 -0.1156 -3.0703 -2.0741
12166SOL    HW237940   5.746   4.899   0.077  0.5941 -1.5096 -2.5857
12167SOL     OW37941   3.772   5.864  10.275  0.1371  0.2987 -0.0599
12167SOL    HW137942   3.714   5.886  10.348 -1.3204 -0.5099 -0.9321
12167SOL    HW237943   3.746   5.775  10.250  1.3597  0.1488 -0.8586
12168SOL     OW37944   5.297   2.647   8.241  0.7063 -0.1833  0.2652
12168SOL    HW137945   5.345   2.591   8.303 -0.1141 -0.5665  0.5706
12168SOL    HW237946   5.365   2.682   8.183  1.2172 -1.7480 -0.1259
12169SOL     OW37947   0.538   6.763  11.486 -0.2273  0.0621 -0.5231
12169SOL    HW137948   0.624   6.798  11.508  0.4004 -1.2598 -0.7467
12169SOL    HW237949   0.480   6.838  11.488  0.7563  0.8258  0.5636
12170SOL     OW37950   3.115   3.123   1.271  0.4681 -0.0301  0.0709
12170SOL    HW137951   3.197   3.077   1.254 -0.0749 -0.7113 -0.8002
12170SOL    HW237952   3.069   3.068   1.334  0.4445  0.0719  0.1435
12171SOL     OW37953   1.583   3.112   0.413 -0.1786 -0.0408 -0.0049
12171SOL    HW137954   1.548   3.199   0.435  0.6655  0.8222 -1.8137
12171SOL    HW237955   1.548   3.094   0.326  1.5562 -0.4025 -0.6643
12172SOL     OW37956   4.523   1.895   9.106  0.2830 -0.3662 -0.4061
12172SOL    HW137957   4.611   1.934   9.105  0.2991 -0.1562  2.1318
12172SOL    HW237958   4.488   1.913   9.019  2.1711  0.9166 -0.9711
12173SOL     OW37959   2.783   7.683   3.679  0.3360  0.1498  0.1289
12173SOL    HW137960   2.812   7.718   3.763  0.8444  1.0875 -0.4158
12173SOL    HW237961   2.842   7.609   3.661  2.0069  1.5832 -0.6241
12174SOL     OW37962   0.620   1.677  11.576  0.3642 -0.3786  0.5839
12174SOL    HW137963   0.552   1.621  11.540 -0.1158  0.5002  0.0782
12174SOL    HW237964   0.702   1.636  11.547  0.0057  0.3750 -1.7400
12175SOL     OW37965   7.866   1.212   8.700  0.5182  0.3664  0.2863
12175SOL    HW137966   7.849   1.267   8.623  0.0520 -1.5353 -1.0342
12175SOL    HW237967   7.954   1.236   8.728  1.2037  0.2458 -1.6238
12176SOL     OW37968   1.300   4.715  12.325 -0.3950  0.4544 -0.1381
12176SOL    HW137969   1.322   4.802  12.290  0.6635 -0.0383 -0.7465
12176SOL    HW237970   1.305   4.727  12.420  1.7419  0.6294 -0.2061
12177SOL     OW37971   1.996   2.850   6.184 -0.2493  0.3901  0.2018
12177SOL    HW137972   1.955   2.923   6.230 -1.3519 -0.1788  0.1628
12177SOL    HW237973   1.930   2.781   6.185  0.5029 -0.3649 -0.3885
12178SOL     OW37974   2.652   2.112   9.793 -0.4280 -0.0811 -0.1270
12178SOL    HW137975   2.720   2.161   9.838  1.0031 -1.3496 -0.8392
12178SOL    HW237976   2.668   2.021   9.817 -1.2640 -0.5044 -1.0918
12179SOL     OW37977   4.978   2.034   9.470 -0.1472  0.1358 -0.2529
12179SOL    HW137978   4.933   1.993   9.543  2.6840  1.0753  2.2672
12179SOL    HW237979   4.964   2.128   9.483  2.1295  0.4360  0.4475
12180SOL     OW37980   0.806   3.748   5.229  0.0822  0.8381  0.3691
12180SOL    HW137981   0.727   3.750   5.175  1.6669 -0.9349 -2.2282
12180SOL    HW237982   0.822   3.655   5.246  1.4708  1.1709  1.0652
12181SOL     OW37983   5.670   6.684   3.278  0.4087 -0.0949 -0.1947
12181SOL    HW137984   5.666   6.588   3.280  2.2283 -0.2087 -0.1603
12181SOL    HW237985   5.590   6.710   3.233 -0.1862 -1.6205 -0.0938
12182SOL     OW37986   0.141   4.169  11.987  0.0938  0.0615  0.0692
12182SOL    HW137987   0.215   4.219  12.020  1.2381 -0.6804 -1.2866
12182SOL    HW237988   0.170   4.134  11.903 -0.4774 -3.1804  1.0446
12183SOL     OW37989   2.958   4.971   0.147  0.2561 -0.2578 -0.1724
12183SOL    HW137990   2.882   4.986   0.203  1.1360 -1.7767  1.5673
12183SOL    HW237991   2.935   5.010   0.063 -1.9192  0.4156  0.6729
12184SOL     OW37992   1.240   4.251   3.249  0.7050 -0.3141  0.1401
12184SOL    HW137993   1.215   4.183   3.312  1.4838 -0.7773 -0.0474
12184SOL    HW237994   1.183   4.325   3.271 -0.1157 -1.0002  0.3840
12185SOL     OW37995   5.755   3.399   0.731  0.0450  0.3501  0.9167
12185SOL    HW137996   5.697   3.443   0.669  1.1563 -0.0035 -0.3930
12185SOL    HW237997   5.765   3.311   0.697  0.6330  0.1242  1.6450
12186SOL     OW37998   1.030   7.757   0.287 -0.1290  0.3891  0.4905
12186SOL    HW137999   1.041   7.673   0.242 -0.7215  0.6917 -0.2516
12186SOL    HW238000   1.005   7.733   0.376 -1.4937 -0.2474 -0.0252
12187SOL     OW38001   7.622   4.701  10.313 -0.0930 -0.0850  0.3079
12187SOL    HW138002   7.646   4.749  10.392 -1.0471  0.1827  0.4439
12187SOL    HW238003   7.534   4.668  10.330 -0.3056 -0.0285 -0.6380
12188SOL     OW38004   4.482   5.037   8.490  0.4213 -0.0967  0.4541
12188SOL    HW138005   4.483   4.942   8.495 -1.0344 -0.1840 -0.4381
12188SOL    HW238006   4.403   5.063   8.538  0.4375  0.6180  0.1131
12189SOL     OW38007   0.344   0.417   6.455  0.4807 -0.3710 -0.2682
12189SOL    HW138008   0.285   0.362   6.507 -0.5454  0.8672 -0.0802
12189SOL    HW238009   0.362   0.366   6.377  1.2308 -1.8395  0.8087
12190SOL     OW38010   6.530   6.377   7.609  0.0304 -0.1009 -0.6681
12190SOL    HW138011   6.574   6.293   7.596  0.4521  0.0156 -0.0379
12190SOL    HW238012   6.438   6.358   7.594  0.0195 -0.8647  0.2331
12191SOL     OW38013   4.038   2.021   7.924  0.0283 -0.0464  0.1054
12191SOL    HW138014   4.043   1.925   7.920  1.0351 -0.0262  0.6575
12191SOL    HW238015   4.058   2.042   8.015 -0.2016  0.6905 -0.0134
12192SOL     OW38016   1.340   0.752   1.030  0.6539  0.2663 -0.0282
12192SOL    HW138017   1.424   0.759   0.985 -0.2379  1.3442 -1.6512
12192SOL    HW238018   1.283   0.709   0.966 -0.2054  0.1800  0.7844
12193SOL     OW38019   5.519   6.946   2.520  0.3596 -0.3211  0.1821
12193SOL    HW138020   5.501   6.930   2.427 -0.2012 -1.7177  0.5042
12193SOL    HW238021   5.614   6.956   2.524  0.4929 -1.2626 -0.4028
12194SOL     OW38022   7.482   7.009   4.123  0.3154 -0.0879 -0.2852
12194SOL    HW138023   7.575   7.016   4.099  0.6105  1.4041  1.1067
12194SOL    HW238024   7.440   7.079   4.073  0.3074  0.5938  0.6584
12195SOL     OW38025   7.920   2.628  10.614 -0.3718 -0.3387  0.1017
12195SOL    HW138026   7.847   2.576  10.646 -0.3794  0.9957  2.4707
12195SOL    HW238027   7.885   2.717  10.608  0.3329 -0.1265 -1.4453
12196SOL     OW38028   6.842   6.252   3.267 -0.0009  0.7232  0.4618
12196SOL    HW138029   6.891   6.290   3.195  0.3787  2.1570  1.4295
12196SOL    HW238030   6.894   6.177   3.296 -0.0622  0.2611 -0.6033
12197SOL     OW38031   0.202   6.238  11.278  0.1623 -0.7684  0.3397
12197SOL    HW138032   0.273   6.252  11.341 -0.8911 -1.0666  1.6396
12197SOL    HW238033   0.233   6.165  11.223  0.2275 -1.9902  1.9316
12198SOL     OW38034   0.750   0.372   4.038  0.1365  0.5379  0.3455
12198SOL    HW138035   0.757   0.376   3.942 -0.1836 -0.3727  0.2749
12198SOL    HW238036   0.683   0.436   4.060  1.1969  1.7832  0.1037
12199SOL     OW38037   0.624   4.349   9.842  0.2070  0.3796 -0.0195
12199SOL    HW138038   0.615   4.337   9.937 -0.1115 -0.5846 -0.1644
12199SOL    HW238039   0.576   4.276   9.804  0.3357  0.7588 -0.9322
12200SOL     OW38040   4.077   2.095   2.624  0.0188  0.0415  0.2411
12200SOL    HW138041   4.017   2.064   2.556 -0.3617  1.0982  0.0670
12200SOL    HW238042   4.147   2.139   2.577 -0.7697  1.6743  0.5345
12201SOL     OW38043   6.763   3.739   3.561 -0.7114 -0.0364 -0.2787
12201SOL    HW138044   6.773   3.663   3.617 -0.2760 -0.5919 -1.0937
12201SOL    HW238045   6.769   3.704   3.472  2.2350  1.2543 -0.7123
12202SOL     OW38046   7.907   0.796   9.429 -0.1809  0.0651  0.0119
12202SOL    HW138047   7.920   0.782   9.523 -0.9965 -1.2839 -0.0482
12202SOL    HW238048   7.982   0.849   9.402  1.1185 -1.1568  1.0618
12203SOL     OW38049   4.139   2.912   4.181 -0.2177 -0.6217  0.1209
12203SOL    HW138050   4.097   2.979   4.236  0.3172 -2.0616  2.4343
12203SOL    HW238051   4.078   2.900   4.108 -0.9660  1.4064  0.3412
12204SOL     OW38052   2.989   3.145   3.798  0.0982 -0.2179  0.2855
12204SOL    HW138053   3.035   3.097   3.867  1.0439 -0.9899 -0.8381
12204SOL    HW238054   2.968   3.078   3.732 -4.6791 -0.4197  1.6533
12205SOL     OW38055   3.031   7.923   0.731  0.1813  0.0320 -0.6159
12205SOL    HW138056   3.091   7.886   0.796 -0.8915 -0.2019  0.2741
12205SOL    HW238057   2.956   7.863   0.731 -1.6891  2.1723  0.9999
12206SOL     OW38058   6.980   1.328   3.194  0.2855  0.0010  0.6468
12206SOL    HW138059   7.041   1.374   3.251  0.8116 -0.6205  0.5903
12206SOL    HW238060   6.966   1.387   3.120 -0.3553  0.7909  1.3772
12207SOL     OW38061   3.620   5.802   9.038 -0.1927  0.1434  0.1995
12207SOL    HW138062   3.702   5.762   9.011  0.4647  0.1893  2.0413
12207SOL    HW238063   3.578   5.737   9.094 -0.3543  0.9734  1.0689
12208SOL     OW38064   6.739   3.231   4.615 -0.2953  0.7418 -0.2048
12208SOL    HW138065   6.745   3.320   4.649 -0.0130  0.5499  0.2605
12208SOL    HW238066   6.703   3.241   4.527 -2.5660  1.1630  0.6739
12209SOL     OW38067   3.760   6.093   3.089  0.0276 -0.2795  0.1101
12209SOL    HW138068   3.822   6.081   3.018 -1.0374 -1.2454 -0.6956
12209SOL    HW238069   3.716   6.175   3.069  1.0184  0.4153  0.6911
12210SOL     OW38070   6.928   0.892   0.839 -1.0568 -0.1437  0.2517
12210SOL    HW138071   6.836   0.879   0.861 -1.3890 -0.1842 -1.1031
12210SOL    HW238072   6.930   0.971   0.785 -0.3998 -0.6162 -0.4316
12211SOL     OW38073   1.363   7.924  11.029 -0.5051 -0.1006 -0.0303
12211SOL    HW138074   1.364   7.869  11.107 -0.2469 -0.5486 -0.3452
12211SOL    HW238075   1.430   7.991  11.046  0.0633 -0.6288 -0.1726
12212SOL     OW38076   7.076   5.974   4.916 -0.5856  0.2490 -0.0571
12212SOL    HW138077   7.042   5.897   4.870 -3.7925  1.4068  0.1125
12212SOL    HW238078   7.046   5.961   5.007  0.5640  0.7731  0.4067
12213SOL     OW38079   1.920   5.965  10.617 -0.0654 -0.4497  0.1441
12213SOL    HW138080   1.990   5.950  10.553  0.0348  0.6351 -0.0141
12213SOL    HW238081   1.864   5.888  10.609  1.3895 -1.6246  0.6719
12214SOL     OW38082   3.218   2.151   4.022 -0.0009 -0.1981  0.9258
12214SOL    HW138083   3.181   2.081   4.075 -0.0656 -2.1959 -1.5943
12214SOL    HW238084   3.288   2.109   3.971 -0.2195  1.4523 -0.8700
12215SOL     OW38085   6.768   2.402   7.689  0.0596  0.2634  0.2304
12215SOL    HW138086   6.766   2.493   7.661  0.3621  0.2776  0.2518
12215SOL    HW238087   6.801   2.405   7.779 -1.4788  0.2725  0.8156
12216SOL     OW38088   2.690   6.085  11.882  0.0861 -0.0483  0.5185
12216SOL    HW138089   2.732   6.165  11.912 -0.2695  0.5961 -0.6631
12216SOL    HW238090   2.618   6.071  11.943 -1.0751  1.6418 -0.4044
12217SOL     OW38091   3.382   0.929  11.785 -0.8388 -0.2621 -0.3640
12217SOL    HW138092   3.419   0.949  11.699 -1.5585 -0.1685 -0.6637
12217SOL    HW238093   3.451   0.880  11.830 -0.6318 -0.7560 -1.1838
12218SOL     OW38094   4.355   2.092  12.079 -0.0936 -0.3343 -0.1324
12218SOL    HW138095   4.294   2.146  12.129 -0.6085 -1.4672  0.4912
12218SOL    HW238096   4.439   2.102  12.125 -0.7223 -1.9604  1.4655
12219SOL     OW38097   3.178   3.778   6.274 -0.0369  0.0817  0.4043
12219SOL    HW138098   3.134   3.837   6.335 -0.6793 -1.2215  1.2482
12219SOL    HW238099   3.237   3.726   6.329  0.3943 -0.1906 -0.2981
12220SOL     OW38100   0.280   4.035   6.822  0.3014 -0.0824 -0.8533
12220SOL    HW138101   0.303   3.977   6.749 -1.0437 -1.6872 -0.0630
12220SOL    HW238102   0.334   4.005   6.895 -0.6032 -0.5555 -0.3606
12221SOL     OW38103   0.853   6.439   7.554  0.0563 -0.4021  0.0118
12221SOL    HW138104   0.807   6.434   7.638 -0.2926  1.4368 -0.0284
12221SOL    HW238105   0.918   6.507   7.566  0.6303 -0.7655 -0.9370
12222SOL     OW38106   6.223   5.159   8.550  0.4317 -0.1336 -0.2265
12222SOL    HW138107   6.226   5.251   8.575 -0.3664 -0.4953  1.3451
12222SOL    HW238108   6.227   5.160   8.455 -0.9905  1.6244 -0.3291
12223SOL     OW38109   0.315   1.166   5.932 -0.5248 -0.1424  0.0388
12223SOL    HW138110   0.399   1.211   5.923 -0.6427 -0.0984 -1.0556
12223SOL    HW238111   0.260   1.229   5.979  0.1144 -0.2765  0.9991
12224SOL     OW38112   1.498   7.280   1.133  0.0240  0.7599  0.2331
12224SOL    HW138113   1.533   7.225   1.202  0.6846  0.9084  0.0222
12224SOL    HW238114   1.554   7.263   1.057 -1.6350 -0.6177 -0.7778
12225SOL     OW38115   6.112   4.350   7.894  0.2597 -0.2180 -0.5443
12225SOL    HW138116   6.047   4.337   7.964  0.8303  1.4155  0.3449
12225SOL    HW238117   6.189   4.385   7.939  1.6666 -1.7340 -1.6372
12226SOL     OW38118   6.341   4.192   3.754 -0.1156  0.1652  0.3292
12226SOL    HW138119   6.334   4.097   3.748  3.6289 -0.2836  1.0147
12226SOL    HW238120   6.305   4.224   3.671  1.4090 -2.1027 -1.3157
12227SOL     OW38121   0.853   0.152   9.736 -0.6650 -0.0355 -0.5742
12227SOL    HW138122   0.933   0.100   9.747  0.5525  1.5135 -1.5457
12227SOL    HW238123   0.826   0.135   9.646 -0.1406  1.1012 -0.9689
12228SOL     OW38124   3.403   6.904   4.034 -0.3937 -0.0930  0.3903
12228SOL    HW138125   3.479   6.864   4.074 -1.7517 -0.0811  3.2034
12228SOL    HW238126   3.364   6.834   3.981 -0.4857 -1.2712  1.9641
12229SOL     OW38127   5.330   4.429   0.175 -0.4570 -0.0560  0.5063
12229SOL    HW138128   5.410   4.478   0.192 -0.7137  0.7230 -0.4101
12229SOL    HW238129   5.282   4.483   0.112 -1.4001 -0.8229  0.5415
12230SOL     OW38130   7.086   1.299   5.932 -0.1141  0.0843 -0.0634
12230SOL    HW138131   7.137   1.218   5.927  0.1106  0.2860 -1.2038
12230SOL    HW238132   6.995   1.271   5.930 -0.0345 -0.1317 -0.5840
12231SOL     OW38133   4.981   2.046   2.723  0.3745 -0.0598  0.1744
12231SOL    HW138134   4.926   2.035   2.646 -0.7518 -2.6241  1.2422
12231SOL    HW238135   4.983   2.141   2.738  0.0511  0.4502 -2.5368
12232SOL     OW38136   1.397   6.864   1.528  0.0133 -0.2186  0.0702
12232SOL    HW138137   1.366   6.896   1.613  0.0769  0.6940 -0.2361
12232SOL    HW238138   1.351   6.918   1.464  2.2835  1.2960 -0.3956
12233SOL     OW38139   4.459   4.955   1.618  0.2029 -0.4473  0.1716
12233SOL    HW138140   4.532   4.953   1.556  0.5856 -1.9136  0.6332
12233SOL    HW238141   4.441   4.863   1.638 -1.9383 -0.1412 -0.0940
12234SOL     OW38142   0.889   1.236   0.370  0.4037 -0.0076 -0.5269
12234SOL    HW138143   0.862   1.212   0.282 -1.1638 -1.3540  0.2719
12234SOL    HW238144   0.814   1.215   0.426  1.0921  1.4280  1.0612
12235SOL     OW38145   4.574   4.740   8.932  0.2883  0.2491  0.9217
12235SOL    HW138146   4.622   4.662   8.960 -0.2147 -0.3580  0.1191
12235SOL    HW238147   4.595   4.749   8.839  0.4028  1.1222  1.0254
12236SOL     OW38148   3.275   4.649   3.629 -0.8278  0.5603 -0.1634
12236SOL    HW138149   3.203   4.591   3.651 -0.2640  0.2961  1.0336
12236SOL    HW238150   3.351   4.591   3.619 -0.8228  0.7873 -1.7859
12237SOL     OW38151   5.052   3.264   8.872 -0.4266 -0.1408  0.8735
12237SOL    HW138152   5.054   3.260   8.776  0.4071  0.3372  0.8676
12237SOL    HW238153   5.053   3.172   8.899 -1.5893 -0.3129  0.4243
12238SOL     OW38154   1.730   7.797   3.377  0.2204  0.0918 -0.0275
12238SOL    HW138155   1.745   7.828   3.287 -0.4238 -1.9414 -0.8723
12238SOL    HW238156   1.641   7.826   3.398 -1.0514 -2.5186 -1.4623
12239SOL     OW38157   1.297   7.353   9.251  0.6262  0.1220 -0.4143
12239SOL    HW138158   1.232   7.408   9.294  0.6856  0.0751 -0.2640
12239SOL    HW238159   1.263   7.341   9.162  0.1954 -0.2776 -0.2037
12240SOL     OW38160   6.044   5.053  10.147  0.1225  0.3841 -0.0578
12240SOL    HW138161   6.110   5.012  10.091 -0.2081 -0.4405  0.1481
12240SOL    HW238162   6.053   5.009  10.231 -0.9701 -0.0311 -0.1498
12241SOL     OW38163   1.326   2.658   7.993  0.1952  0.4645  0.2126
12241SOL    HW138164   1.373   2.733   7.957 -0.8654  0.5719 -1.0680
12241SOL    HW238165   1.296   2.610   7.915 -3.3292  1.3885  0.8502
12242SOL     OW38166   3.665   7.263   1.985  0.5150 -0.9528 -0.2477
12242SOL    HW138167   3.575   7.234   1.996  0.8516 -2.3753 -0.9802
12242SOL    HW238168   3.662   7.323   1.910 -0.2428  1.3210  1.4874
12243SOL     OW38169   3.514   0.027   6.468 -0.5096  0.1453 -0.3669
12243SOL    HW138170   3.499   0.041   6.374 -2.1989 -0.4041 -0.2184
12243SOL    HW238171   3.493  -0.066   6.481  0.1967  0.1023  0.4670
12244SOL     OW38172   4.594   6.875   3.495  0.2448 -0.5918  0.7941
12244SOL    HW138173   4.623   6.966   3.497  4.1946 -1.6364  0.4914
12244SOL    HW238174   4.655   6.829   3.554  1.4182 -3.6326 -2.4147
12245SOL     OW38175   5.561   2.844   6.650 -0.4135 -0.2174  0.4823
12245SOL    HW138176   5.545   2.849   6.556 -0.8236 -0.0280  0.5624
12245SOL    HW238177   5.604   2.927   6.671 -0.7813 -0.0449  0.5524
12246SOL     OW38178   6.130   3.256   0.677  0.0204  0.1822 -0.0515
12246SOL    HW138179   6.124   3.313   0.754  1.3374 -0.6338  0.6843
12246SOL    HW238180   6.147   3.317   0.604  1.6436  0.7455  0.7547
12247SOL     OW38181   4.236   0.041   3.146 -0.5332 -0.1595 -0.0259
12247SOL    HW138182   4.313   0.097   3.148 -0.1516 -0.6838  0.2363
12247SOL    HW238183   4.259  -0.030   3.086 -0.7948 -0.3370  0.0802
12248SOL     OW38184   6.957   2.274   2.677 -0.0527 -1.0404  0.0354
12248SOL    HW138185   6.912   2.354   2.704 -0.1939 -0.3161 -2.1402
12248SOL    HW238186   6.959   2.220   2.756 -1.4707  0.4070  1.1377
12249SOL     OW38187   2.505   1.274   7.773  0.1863  0.4667 -0.6840
12249SOL    HW138188   2.537   1.184   7.786  1.4277  1.0335  0.4454
12249SOL    HW238189   2.583   1.328   7.779 -0.8457  1.8621  1.3772
12250SOL     OW38190   7.761   1.009   3.956  0.6960 -0.8625 -0.4557
12250SOL    HW138191   7.670   0.981   3.942  0.1930  0.3746  0.1477
12250SOL    HW238192   7.790   1.040   3.870 -0.4237  1.2955 -0.1500
12251SOL     OW38193   0.068   0.734  10.242  0.1694 -0.0565  0.1561
12251SOL    HW138194   0.138   0.683  10.282 -0.0888  1.0024  2.0734
12251SOL    HW238195   0.113   0.805  10.197  0.3897  1.1644  2.1643
12252SOL     OW38196   3.238   7.073   9.886 -0.0234  0.0947  0.1547
12252SOL    HW138197   3.296   7.029   9.948 -0.1426 -0.0840  0.1422
12252SOL    HW238198   3.272   7.162   9.879  1.0027 -0.3489 -0.8042
12253SOL     OW38199   0.215   5.785  10.107 -0.0421 -0.1502 -0.1102
12253SOL    HW138200   0.232   5.866  10.059  1.3348 -0.1117  0.3942
12253SOL    HW238201   0.220   5.810  10.199  1.6823 -1.0248  0.0674
12254SOL     OW38202   1.522   6.306   4.113  0.0936 -0.6559  0.1698
12254SOL    HW138203   1.593   6.264   4.162  0.2472  0.5537  1.0142
12254SOL    HW238204   1.506   6.388   4.159 -1.6027 -0.7200 -0.2340
12255SOL     OW38205   4.627   5.828   6.700 -0.0185 -0.2902 -0.1680
12255SOL    HW138206   4.612   5.738   6.731 -0.5508 -0.0386  0.3282
12255SOL    HW238207   4.547   5.849   6.651 -0.3777  0.2975  0.6496
12256SOL     OW38208   7.134   4.691   3.718 -0.0951  0.0774 -0.0701
12256SOL    HW138209   7.166   4.696   3.808 -1.5742 -1.1012  0.5590
12256SOL    HW238210   7.191   4.751   3.669 -1.2971  3.3761  2.2224
12257SOL     OW38211   0.365   5.477   9.041  0.1953  0.3590 -0.3402
12257SOL    HW138212   0.382   5.569   9.060  1.9851  0.1312 -0.6499
12257SOL    HW238213   0.293   5.478   8.978  0.1704  1.5368 -0.3069
12258SOL     OW38214   0.768   0.515   0.803  0.1686  0.3371 -0.4202
12258SOL    HW138215   0.857   0.551   0.804  0.1611  0.3486 -0.0210
12258SOL    HW238216   0.779   0.421   0.817  0.1394  0.2922 -0.7002
12259SOL     OW38217   3.626   5.299   8.206  0.3075  0.2177  0.2937
12259SOL    HW138218   3.564   5.254   8.264 -0.7952  0.7980 -0.3894
12259SOL    HW238219   3.572   5.363   8.159  1.9318  2.9133  1.8667
12260SOL     OW38220   4.548   1.272   2.236 -0.0604  0.4432  0.2994
12260SOL    HW138221   4.514   1.190   2.200 -1.4479 -0.5580  3.5742
12260SOL    HW238222   4.471   1.318   2.270  1.0576  1.5250  1.5140
12261SOL     OW38223   3.892   7.774   1.696 -0.2377  0.4800 -0.2632
12261SOL    HW138224   3.972   7.793   1.745 -1.0710  0.1553  1.2789
12261SOL    HW238225   3.889   7.842   1.628  0.7477  1.1988  0.3910
12262SOL     OW38226   7.389   6.459   5.675 -0.5059 -0.0007  0.4308
12262SOL    HW138227   7.305   6.493   5.705 -0.0391  1.0022  0.6435
12262SOL    HW238228   7.432   6.428   5.755 -0.8267 -0.8714  0.2709
12263SOL     OW38229   4.079   0.720   5.710  0.0333  0.4020 -0.1313
12263SOL    HW138230   4.144   0.700   5.643  2.4223  2.2853  1.4632
12263SOL    HW238231   4.051   0.810   5.690 -1.6831 -0.1549 -0.4150
12264SOL     OW38232   3.190   2.373   1.806  0.0427 -0.1508 -0.0717
12264SOL    HW138233   3.120   2.314   1.778  0.8949 -0.9469 -0.5979
12264SOL    HW238234   3.163   2.459   1.773  0.4127 -0.8485 -2.3702
12265SOL     OW38235   4.701   1.557   1.455 -0.1071 -0.1880  0.2250
12265SOL    HW138236   4.695   1.653   1.456 -0.3333 -0.1937 -0.4188
12265SOL    HW238237   4.646   1.530   1.382 -0.0380 -0.8151  0.3957
12266SOL     OW38238   3.516   0.478   0.425 -0.3620  0.5146 -0.1729
12266SOL    HW138239   3.557   0.504   0.507 -3.3116  1.8755  1.0124
12266SOL    HW238240   3.430   0.444   0.450 -0.3453 -1.5958 -2.5264
12267SOL     OW38241   7.693   1.837   7.567  0.2726  1.0864 -0.2149
12267SOL    HW138242   7.749   1.775   7.613 -0.4158  0.7494  0.1799
12267SOL    HW238243   7.748   1.871   7.497  0.4806 -0.4486 -0.8396
12268SOL     OW38244   0.080   5.691   4.849  0.0783  0.1273 -0.6954
12268SOL    HW138245   0.100   5.678   4.756  1.7104  1.1330 -0.5251
12268SOL    HW238246   0.079   5.786   4.860 -0.2872  0.0215  0.2875
12269SOL     OW38247   3.184   2.013   4.673 -0.5893  0.2003  0.1403
12269SOL    HW138248   3.248   2.026   4.744  0.2469  1.6058 -0.8069
12269SOL    HW238249   3.124   2.087   4.681 -2.6357 -1.4931  1.4722
12270SOL     OW38250   6.591   6.869   3.394 -0.1154 -0.1371 -0.0299
12270SOL    HW138251   6.629   6.909   3.472 -0.2634 -0.9562  0.4802
12270SOL    HW238252   6.515   6.924   3.373 -1.1392 -0.8936  1.4745
12271SOL     OW38253   3.706   1.676   2.837  0.5348 -0.3718  0.0346
12271SOL    HW138254   3.801   1.687   2.836  0.4286  0.6275 -0.6436
12271SOL    HW238255   3.681   1.678   2.744 -0.2103  0.0760  0.2372
12272SOL     OW38256   2.853   2.387   8.632  0.5706 -0.4464 -0.3977
12272SOL    HW138257   2.839   2.477   8.602  0.7425 -0.1055  0.4914
12272SOL    HW238258   2.793   2.334   8.580 -0.6223  0.3800  0.0935
12273SOL     OW38259   7.361   7.690   7.395 -0.0639 -0.0369  0.1021
12273SOL    HW138260   7.267   7.696   7.413 -0.3262 -1.5809 -0.5470
12273SOL    HW238261   7.368   7.705   7.301  0.3192 -0.0677  0.1241
12274SOL     OW38262   6.664   1.762   6.532  0.0549 -0.4776  0.1888
12274SOL    HW138263   6.587   1.776   6.477  0.0793 -1.2381 -0.0497
12274SOL    HW238264   6.679   1.846   6.574 -0.4064 -0.0925 -0.4060
12275SOL     OW38265   3.806   5.412   2.540  1.0823  0.0815 -0.1665
12275SOL    HW138266   3.727   5.358   2.539  0.1616  1.3825 -1.0751
12275SOL    HW238267   3.862   5.375   2.472  1.6256 -1.3087  0.9845
12276SOL     OW38268   2.032   2.996   3.867  0.2229 -0.0921 -0.7242
12276SOL    HW138269   1.982   2.932   3.816 -2.7311  1.0649  0.4761
12276SOL    HW238270   2.051   2.951   3.950  0.7023 -0.3424 -0.9657
12277SOL     OW38271   7.798   0.759   9.141  0.2414 -0.7073  0.1125
12277SOL    HW138272   7.821   0.775   9.232 -1.1184  0.9281  0.2193
12277SOL    HW238273   7.841   0.676   9.119  1.2849 -0.6976  1.9660
12278SOL     OW38274   2.583   4.222   3.151 -0.0532 -0.3567  0.4575
12278SOL    HW138275   2.553   4.290   3.212 -1.1406 -0.9569  0.6152
12278SOL    HW238276   2.678   4.235   3.146 -0.1673  0.8337  0.8891
12279SOL     OW38277   3.478   1.788   2.166  0.1126 -0.0210 -0.7885
12279SOL    HW138278   3.509   1.698   2.181  0.3311  0.0625 -0.7306
12279SOL    HW238279   3.557   1.836   2.142 -0.0162  0.1422 -0.8841
12280SOL     OW38280   0.835   3.434  11.784  0.4275  0.1003 -0.8148
12280SOL    HW138281   0.763   3.460  11.726  0.6969  0.6810 -0.8912
12280SOL    HW238282   0.887   3.514  11.796  0.1281  0.1068  0.5932
12281SOL     OW38283   0.708   1.615   6.422  0.1431  0.0234 -0.4672
12281SOL    HW138284   0.756   1.674   6.364  0.1389 -0.9772 -1.5115
12281SOL    HW238285   0.640   1.577   6.366 -1.6120  1.0598  0.8550
12282SOL     OW38286   2.078   5.983   7.010 -0.2021 -0.5003 -0.1499
12282SOL    HW138287   2.049   6.041   7.080  0.1469  0.8914 -1.1136
12282SOL    HW238288   2.029   6.011   6.933 -0.0615 -1.5319 -0.6362
12283SOL     OW38289   3.662   2.291   4.254 -0.2745 -0.3369 -0.3635
12283SOL    HW138290   3.624   2.256   4.335 -0.8641  0.1114 -0.4404
12283SOL    HW238291   3.661   2.217   4.193  0.2214 -0.6922  0.0468
12284SOL     OW38292   0.394   4.158   5.765 -0.3959  0.3560 -0.2502
12284SOL    HW138293   0.377   4.171   5.671  0.9567  1.1208 -0.4198
12284SOL    HW238294   0.313   4.121   5.799 -1.3657  1.2495 -1.4807
12285SOL     OW38295   5.086   6.727   5.829  0.8967 -0.0101  0.1158
12285SOL    HW138296   5.106   6.727   5.923  1.2097  0.3251  0.0493
12285SOL    HW238297   5.172   6.726   5.786  0.8071  2.0877 -0.1782
12286SOL     OW38298   3.377   3.030   3.915 -0.0821  0.0038  0.1644
12286SOL    HW138299   3.410   2.988   3.836  0.6243 -0.4797  0.7014
12286SOL    HW238300   3.413   2.978   3.987 -0.8366  0.3429  0.8034
12287SOL     OW38301   3.638   7.109   5.582 -0.1677  0.2591 -0.1862
12287SOL    HW138302   3.700   7.181   5.572  0.8976 -0.1741  2.3087
12287SOL    HW238303   3.639   7.064   5.498  1.8515  1.1104 -0.6887
12288SOL     OW38304   1.748   0.446   2.433  0.7295  0.4491 -0.4286
12288SOL    HW138305   1.714   0.399   2.357 -0.9599  2.6798 -1.1543
12288SOL    HW238306   1.822   0.497   2.399 -0.7117  2.3158 -0.9391
12289SOL     OW38307   7.019   3.452   8.637 -0.3054  0.1869 -0.4185
12289SOL    HW138308   7.104   3.455   8.593 -0.4850  1.0635 -0.7347
12289SOL    HW238309   7.021   3.372   8.689  1.7274  1.4009  1.5779
12290SOL     OW38310   2.836   7.011   0.333  1.5219 -0.1176 -0.1918
12290SOL    HW138311   2.917   6.970   0.363  1.8231 -1.2653 -2.4161
12290SOL    HW238312   2.808   6.959   0.258 -1.4118  0.1145  0.5950
12291SOL     OW38313   7.073   3.795   5.739  0.8476  0.2707 -0.5671
12291SOL    HW138314   7.048   3.851   5.813  1.2444  0.5527 -0.6489
12291SOL    HW238315   7.019   3.826   5.666 -0.9282 -1.2017  0.0324
12292SOL     OW38316   6.294   3.158   8.731 -0.2663  0.1153  0.5502
12292SOL    HW138317   6.330   3.070   8.718 -1.8210 -0.4631 -0.0120
12292SOL    HW238318   6.292   3.196   8.644 -1.6914 -0.1471  0.4524
12293SOL     OW38319   5.309   2.588   4.133  0.1182  0.0393  0.5412
12293SOL    HW138320   5.260   2.584   4.051  1.1770  0.7132 -0.1473
12293SOL    HW238321   5.244   2.569   4.200 -1.1373  1.0770 -0.3155
12294SOL     OW38322   2.757   6.140   9.290  0.8149  0.6322  0.2224
12294SOL    HW138323   2.800   6.069   9.339 -0.8029  0.3410  1.3298
12294SOL    HW238324   2.788   6.220   9.333  0.5867  0.4505  0.7426
12295SOL     OW38325   1.160   3.728  10.797 -0.0216  0.5249  0.1533
12295SOL    HW138326   1.226   3.775  10.847 -0.2159  0.1480  0.7746
12295SOL    HW238327   1.100   3.692  10.863  0.8391 -1.7233 -0.1844
12296SOL     OW38328   6.051   1.766   1.396  0.5442  0.7227  0.3549
12296SOL    HW138329   6.056   1.677   1.432 -0.7955  0.1923 -0.6787
12296SOL    HW238330   6.142   1.794   1.391  1.0036 -0.5911  0.6881
12297SOL     OW38331   5.955   4.762   6.297  0.3550  0.5354 -0.0578
12297SOL    HW138332   5.994   4.840   6.337 -1.7765  0.9467  1.3446
12297SOL    HW238333   5.963   4.694   6.363 -0.1067  0.2718 -0.2679
12298SOL     OW38334   5.051   1.587   4.574  0.1082 -0.0585  0.7669
12298SOL    HW138335   5.147   1.586   4.574  0.1448  0.7785  2.0206
12298SOL    HW238336   5.028   1.594   4.481  1.3013  1.1586  0.5231
12299SOL     OW38337   3.794   4.770   7.956  0.1264  0.0384 -0.1819
12299SOL    HW138338   3.817   4.751   8.047  0.0591 -0.5836 -0.2918
12299SOL    HW238339   3.792   4.865   7.951 -0.3304  0.0747  0.5873
12300SOL     OW38340   2.699   3.522   0.778  0.0892 -0.4058  0.2127
12300SOL    HW138341   2.680   3.428   0.774 -0.2938 -0.2905 -1.3305
12300SOL    HW238342   2.794   3.527   0.788  0.0837 -0.9587  0.5591
12301SOL     OW38343   1.227   3.874   1.878  0.1932  0.1525 -0.2222
12301SOL    HW138344   1.285   3.937   1.920  1.5312 -0.7322 -0.7064
12301SOL    HW238345   1.258   3.868   1.788  0.3089 -1.4377 -0.1052
12302SOL     OW38346   2.773   6.707   3.173  0.0967  0.3186 -0.8580
12302SOL    HW138347   2.857   6.679   3.209 -0.0134  0.0510 -0.8096
12302SOL    HW238348   2.736   6.765   3.240  0.2458  0.4442 -0.8834
12303SOL     OW38349   0.085   2.731   7.042 -0.3432 -0.5122  0.5746
12303SOL    HW138350   0.065   2.753   6.951  3.8062 -3.6737 -1.4318
12303SOL    HW238351   0.035   2.652   7.060 -1.4610  0.3224  1.2930
12304SOL     OW38352   3.489   1.490   2.406  0.5354  0.3502  0.1042
12304SOL    HW138353   3.481   1.395   2.419  0.1075  0.3916  0.1480
12304SOL    HW238354   3.531   1.499   2.321 -1.4959  0.1455 -0.9595
12305SOL     OW38355   2.569   6.944   7.628  0.3798  0.3148 -0.2470
12305SOL    HW138356   2.637   6.971   7.567 -0.5161  0.1451 -1.3587
12305SOL    HW238357   2.592   6.855   7.652  1.6821  0.9604  1.0493
12306SOL     OW38358   7.391   0.477   2.456 -0.1083  0.3478 -0.1629
12306SOL    HW138359   7.481   0.511   2.455  0.2832 -0.6085 -1.6727
12306SOL    HW238360   7.389   0.417   2.531  0.3904  0.6452  0.0969
12307SOL     OW38361   1.115   0.428   3.425  0.4525  0.5634 -0.1174
12307SOL    HW138362   1.066   0.396   3.350 -0.0678 -0.2509  0.5460
12307SOL    HW238363   1.165   0.351   3.455  1.1292  1.0388 -0.0059
12308SOL     OW38364   0.646   6.506   2.405 -0.3828  0.1576  0.0640
12308SOL    HW138365   0.591   6.519   2.328  0.1206 -0.0916 -0.3424
12308SOL    HW238366   0.656   6.594   2.443  1.9465  0.8772 -1.9371
12309SOL     OW38367   2.655   7.575  10.694 -0.1179  0.1311  0.0658
12309SOL    HW138368   2.606   7.617  10.623 -0.9937 -0.1026  0.5113
12309SOL    HW238369   2.640   7.482  10.681  1.7448 -0.0884 -0.8667
12310SOL     OW38370   2.050   0.519  10.631 -0.0075  0.1427  0.5318
12310SOL    HW138371   2.099   0.515  10.713  0.4034  2.3708  0.4537
12310SOL    HW238372   2.059   0.431  10.594  1.7572 -0.2469  1.7469
12311SOL     OW38373   6.951   2.585   1.159 -0.5062  0.3861 -0.4662
12311SOL    HW138374   6.965   2.558   1.250  2.1579 -1.4941 -1.3158
12311SOL    HW238375   6.978   2.677   1.157 -1.1114  0.6124  0.7225
12312SOL     OW38376   5.897   6.134   3.900  0.1549 -0.1929 -0.0181
12312SOL    HW138377   5.840   6.085   3.960  0.5254 -0.1874  0.3437
12312SOL    HW238378   5.981   6.088   3.903  0.2669 -0.0134 -0.3012
12313SOL     OW38379   1.668   5.992   1.230  0.0788 -0.2321  0.4420
12313SOL    HW138380   1.721   6.071   1.236 -0.5340  0.2937 -0.8362
12313SOL    HW238381   1.731   5.920   1.236  0.6586  0.3331  1.4035
12314SOL     OW38382   0.665   7.094   7.676 -0.1942 -0.4739 -0.3862
12314SOL    HW138383   0.587   7.139   7.708  0.5494 -0.3230  1.3364
12314SOL    HW238384   0.714   7.070   7.755  1.4978 -0.5909 -1.3994
12315SOL     OW38385   2.710   6.991   0.039  0.1926  0.3860 -0.4463
12315SOL    HW138386   2.703   7.086   0.027 -1.3024  0.1175 -2.1954
12315SOL    HW238387   2.804   6.974   0.040  0.4845  1.8060 -0.9649
12316SOL     OW38388   3.669   1.958   2.533  0.1786  0.5994 -0.1378
12316SOL    HW138389   3.650   1.865   2.542 -0.3589  0.7965  0.9709
12316SOL    HW238390   3.762   1.962   2.512  0.8164 -0.1339  2.2440
12317SOL     OW38391   6.823   7.395  10.949 -0.1202  0.2286 -0.0858
12317SOL    HW138392   6.863   7.480  10.934 -0.9913  0.4929 -0.9781
12317SOL    HW238393   6.798   7.364  10.862 -0.6829 -0.5075  0.3277
12318SOL     OW38394   0.536   1.729   2.569  0.4369  0.4418  0.3627
12318SOL    HW138395   0.461   1.788   2.576  1.5139  1.9080  0.0835
12318SOL    HW238396   0.523   1.665   2.639 -2.2663 -0.8057 -1.1117
12319SOL     OW38397   7.899   0.408   2.604  0.1518  0.1134 -0.0453
12319SOL    HW138398   7.978   0.419   2.552 -0.2142  0.2620 -0.5761
12319SOL    HW238399   7.866   0.321   2.581  0.1645  0.0497  0.1780
12320SOL     OW38400   1.591   1.526  10.039  0.2627 -0.3092 -0.1624
12320SOL    HW138401   1.500   1.547  10.063  0.2935  0.6735 -0.8556
12320SOL    HW238402   1.621   1.468  10.109  0.3961  2.5180  2.3817
12321SOL     OW38403   7.510   5.852   2.949  0.0277  0.0402 -0.2783
12321SOL    HW138404   7.525   5.780   2.888  0.5212 -0.0337 -0.0774
12321SOL    HW238405   7.595   5.866   2.990 -0.1616  0.4776 -0.0317
12322SOL     OW38406   5.838   0.961   9.898 -0.4451  0.1894 -0.3630
12322SOL    HW138407   5.925   1.001   9.899 -1.4984  2.6634  0.1613
12322SOL    HW238408   5.820   0.944   9.806  0.1520  0.6911 -0.5755
12323SOL     OW38409   5.445   5.777  11.783  0.2624  0.3046  0.0424
12323SOL    HW138410   5.367   5.739  11.743  1.3499 -3.0456  0.8281
12323SOL    HW238411   5.469   5.849  11.725 -1.3123 -0.9384 -2.2965
12324SOL     OW38412   5.564   4.476   4.520  0.1288  0.1255  0.8306
12324SOL    HW138413   5.550   4.387   4.488 -0.6221  0.6109 -0.2161
12324SOL    HW238414   5.507   4.483   4.597  1.6043 -0.8890  2.0889
12325SOL     OW38415   7.732   4.370   6.780 -0.1360  0.3668  0.3256
12325SOL    HW138416   7.761   4.390   6.691  0.3576  0.6568  0.5431
12325SOL    HW238417   7.808   4.327   6.820 -0.8684 -1.1777  0.1401
12326SOL     OW38418   5.475   7.368   8.573  0.4772 -0.7470  0.2388
12326SOL    HW138419   5.463   7.367   8.668  0.5208 -1.2168  0.2413
12326SOL    HW238420   5.485   7.461   8.552 -1.4384 -0.4372  0.4517
12327SOL     OW38421   7.449   3.050   4.344 -0.2675 -0.2766  0.1202
12327SOL    HW138422   7.431   3.023   4.434  2.1266  0.9923  1.0564
12327SOL    HW238423   7.414   3.138   4.337  0.0349 -0.1667 -0.0248
12328SOL     OW38424   0.002   1.011   5.535  0.2576 -0.1138 -0.0837
12328SOL    HW138425   0.006   0.926   5.490  0.7466  0.7445 -1.7487
12328SOL    HW238426  -0.024   1.073   5.467 -0.4084  1.0411  1.1797
12329SOL     OW38427   2.643   5.002  10.957  0.3938  0.0264 -0.4159
12329SOL    HW138428   2.669   4.918  10.994  2.5670 -0.5231 -2.8773
12329SOL    HW238429   2.550   5.008  10.975  0.2711 -2.6410  0.3267
12330SOL     OW38430   4.276   6.902   0.705  0.5193  0.2146 -0.2652
12330SOL    HW138431   4.219   6.826   0.716  0.7875  0.2336  1.5436
12330SOL    HW238432   4.268   6.925   0.612 -2.8619  0.5667 -0.0069
12331SOL     OW38433   6.125   2.783   3.809  0.4406 -0.5311 -0.2787
12331SOL    HW138434   6.064   2.855   3.824 -2.0796 -2.2917 -1.4066
12331SOL    HW238435   6.095   2.714   3.869  2.1638 -1.0353  0.0562
12332SOL     OW38436   6.232   3.242   4.893 -0.0375  0.3288  0.4574
12332SOL    HW138437   6.287   3.320   4.880  1.0014 -0.1595  1.6574
12332SOL    HW238438   6.273   3.175   4.839 -1.3967  0.7577 -1.2116
12333SOL     OW38439   1.730   3.701   5.671 -0.3269 -0.2581  0.5375
12333SOL    HW138440   1.660   3.649   5.711 -0.0685  0.8220  2.5366
12333SOL    HW238441   1.805   3.642   5.670 -1.3125 -1.6421 -2.1944
12334SOL     OW38442   2.768   0.025   7.636 -0.2582  0.9827  0.3962
12334SOL    HW138443   2.779  -0.008   7.725  0.8015 -0.6075 -0.2855
12334SOL    HW238444   2.812   0.110   7.636  2.0748 -0.1716  0.7228
12335SOL     OW38445   7.555   6.916   6.751 -0.2547  0.0935  0.1407
12335SOL    HW138446   7.591   6.895   6.838  4.3789 -0.4857 -1.6303
12335SOL    HW238447   7.599   6.997   6.725 -0.3050 -0.5759 -2.2595
12336SOL     OW38448   0.177   7.548   9.411  0.1561 -0.3871 -0.6055
12336SOL    HW138449   0.196   7.465   9.455 -0.8855  0.4665  1.6273
12336SOL    HW238450   0.082   7.555   9.412  0.2396  1.3253  0.3560
12337SOL     OW38451   0.545   1.728   1.528  0.0816  0.4818  0.2739
12337SOL    HW138452   0.549   1.823   1.543  1.1957  0.4318  0.3590
12337SOL    HW238453   0.597   1.690   1.598  1.1763 -0.0764 -0.8098
12338SOL     OW38454   3.766   6.933   4.565 -0.2917 -0.1816  0.2832
12338SOL    HW138455   3.764   6.984   4.484  2.2389 -0.2612  0.0840
12338SOL    HW238456   3.828   6.863   4.548 -1.3976 -1.5349  1.5905
12339SOL     OW38457   3.866   7.400   9.117 -0.1332 -0.3614 -0.5293
12339SOL    HW138458   3.788   7.422   9.168  0.8607  2.4150 -0.0123
12339SOL    HW238459   3.939   7.418   9.176  0.9628 -1.9915 -1.3141
12340SOL     OW38460   4.515   3.037  11.244 -0.1150  0.3324  0.0191
12340SOL    HW138461   4.568   3.075  11.314 -0.0098 -0.4656  0.3817
12340SOL    HW238462   4.461   3.110  11.212 -0.3270  0.6573  1.0844
12341SOL     OW38463   2.215   3.337   5.192  0.0271  0.0952 -0.0620
12341SOL    HW138464   2.185   3.250   5.168  1.6230 -0.1893 -1.0920
12341SOL    HW238465   2.206   3.340   5.288 -0.9292 -0.8342 -0.1119
12342SOL     OW38466   4.463   3.808   3.561 -0.5797 -0.1617 -0.1216
12342SOL    HW138467   4.427   3.733   3.609 -0.2868 -0.0754  0.2381
12342SOL    HW238468   4.410   3.882   3.590  1.2978  0.4035  2.2075
12343SOL     OW38469   5.404   3.624   6.968 -0.1541  0.2017 -0.2159
12343SOL    HW138470   5.349   3.690   7.010  2.0472  0.5542  2.3507
12343SOL    HW238471   5.451   3.672   6.900 -0.5152  0.6624 -0.1469
12344SOL     OW38472   4.218   0.812   1.358 -0.0508 -0.0535  1.0930
12344SOL    HW138473   4.301   0.820   1.405 -0.4910  0.6831  1.7805
12344SOL    HW238474   4.241   0.771   1.274  0.7110 -1.7177  2.0575
12345SOL     OW38475   2.392   7.964   4.204 -0.9281  0.0443  0.4564
12345SOL    HW138476   2.332   7.913   4.259 -1.6771  0.2742 -0.1248
12345SOL    HW238477   2.449   7.899   4.164 -0.9801 -0.2080  0.7904
12346SOL     OW38478   5.197   4.004   0.927 -0.2677  0.2554 -0.1623
12346SOL    HW138479   5.254   4.052   0.866 -0.6587  1.1643  0.1799
12346SOL    HW238480   5.177   3.922   0.881  2.1089 -0.5566  0.0995
12347SOL     OW38481   6.477   7.450   8.204 -0.0813 -0.0953  0.0742
12347SOL    HW138482   6.470   7.535   8.246 -1.5654 -0.5132  0.7623
12347SOL    HW238483   6.544   7.403   8.254  0.7546  0.6502 -0.3198
12348SOL     OW38484   1.680   7.448   6.995 -0.0903  0.0079 -0.5403
12348SOL    HW138485   1.683   7.426   7.088  1.3397  0.5219 -0.4447
12348SOL    HW238486   1.595   7.491   6.984  0.8247  2.4996  1.1553
12349SOL     OW38487   7.177   7.291   6.571 -0.4556 -0.0767 -0.0926
12349SOL    HW138488   7.131   7.316   6.651 -0.2605 -0.4295  0.1327
12349SOL    HW238489   7.268   7.282   6.597 -0.1551  1.1486 -0.6511
12350SOL     OW38490   2.928   6.603   8.128  0.4443  0.0545 -0.6200
12350SOL    HW138491   2.955   6.563   8.211  0.7996  0.5388 -0.4943
12350SOL    HW238492   2.866   6.671   8.153  1.3340  0.9007 -0.6466
12351SOL     OW38493   7.894   6.725   3.730 -0.4545  0.1669  0.5256
12351SOL    HW138494   7.960   6.672   3.684 -0.3768 -0.1773  1.0307
12351SOL    HW238495   7.945   6.794   3.774 -0.4101 -0.1831  1.0328
12352SOL     OW38496   4.064   3.988  10.134  0.1118 -0.3178  0.1729
12352SOL    HW138497   4.157   4.005  10.120  0.0911 -0.3763 -0.0476
12352SOL    HW238498   4.019   4.040  10.067 -0.2501  2.6154  2.4992
12353SOL     OW38499   6.440   1.787   6.391 -0.1667  0.1180  0.5468
12353SOL    HW138500   6.461   1.812   6.301  1.0816 -0.6774  0.5918
12353SOL    HW238501   6.348   1.762   6.389  0.5572 -2.8093 -1.2097
12354SOL     OW38502   7.000   4.604   6.587 -0.0915  0.2711  0.0233
12354SOL    HW138503   7.027   4.626   6.498 -1.3769  0.6766 -0.2925
12354SOL    HW238504   6.905   4.608   6.585 -0.1403  0.9354  1.5739
12355SOL     OW38505   4.515   6.400   0.573  0.3549 -0.2477  0.2859
12355SOL    HW138506   4.502   6.341   0.647 -1.3755 -2.0197 -1.3170
12355SOL    HW238507   4.576   6.466   0.605  3.8892 -3.8367  1.7257
12356SOL     OW38508   6.880   4.450  12.088 -0.1411  0.5748 -0.7857
12356SOL    HW138509   6.889   4.456  12.183 -0.0928  1.3690 -0.8329
12356SOL    HW238510   6.792   4.417  12.074 -0.3013  0.8583 -0.4689
12357SOL     OW38511   1.089   7.834   9.989  0.1682  0.1832  0.0972
12357SOL    HW138512   1.071   7.751  10.032 -0.0873  0.2468  0.1196
12357SOL    HW238513   1.109   7.895  10.060  0.1254  0.1955  0.0991
12358SOL     OW38514   0.264   4.395   6.847 -0.0566  0.5024 -0.4349
12358SOL    HW138515   0.188   4.438   6.809 -0.5757 -0.4948 -0.5595
12358SOL    HW238516   0.246   4.391   6.941  0.5158  1.5717 -0.2712
12359SOL     OW38517   7.933   0.787  11.261  0.3271 -0.0459 -0.1246
12359SOL    HW138518   7.901   0.785  11.351  1.2113 -0.1485  0.1964
12359SOL    HW238519   7.855   0.768  11.207 -0.3104  0.5253  0.5760
12360SOL     OW38520   3.559   5.262   9.668 -0.2027 -0.3934  0.3825
12360SOL    HW138521   3.624   5.312   9.619 -1.7752  0.9822 -0.3946
12360SOL    HW238522   3.588   5.171   9.662  1.2791  0.1161 -0.4866
12361SOL     OW38523   5.897   6.564  11.474  0.3315 -0.1935  0.0731
12361SOL    HW138524   5.964   6.497  11.489 -0.6678 -1.0546  0.8056
12361SOL    HW238525   5.855   6.538  11.392  0.6028  0.1017 -0.1599
12362SOL     OW38526   2.665   5.897   3.150 -0.4358 -0.2074  0.3143
12362SOL    HW138527   2.620   5.837   3.091 -1.0579 -0.2768  0.8482
12362SOL    HW238528   2.659   5.855   3.236 -1.1556  0.7531  0.7517
12363SOL     OW38529   6.641   5.968   5.313  0.3865 -0.0230 -0.4166
12363SOL    HW138530   6.556   5.975   5.269 -0.1573  0.7804  0.7200
12363SOL    HW238531   6.684   5.895   5.269 -1.3986 -1.2830 -0.1663
12364SOL     OW38532   0.601   7.574   9.800  0.0614 -0.0958  0.4941
12364SOL    HW138533   0.576   7.482   9.807 -0.0382 -0.0152  1.3441
12364SOL    HW238534   0.695   7.573   9.783 -0.1516 -0.3701 -0.7232
12365SOL     OW38535   0.190   4.380   9.143  0.1332  0.3229 -0.3361
12365SOL    HW138536   0.168   4.350   9.231  0.5009 -1.0655 -0.7002
12365SOL    HW238537   0.285   4.371   9.137  0.0975  0.2783 -0.9225
12366SOL     OW38538   4.181   6.042   3.306  0.2840 -0.2490 -0.0947
12366SOL    HW138539   4.214   6.020   3.393 -0.8233  1.0050  0.6825
12366SOL    HW238540   4.212   6.131   3.290 -0.3745 -0.0871 -0.5312
12367SOL     OW38541   1.977   7.025  12.087  0.5808  0.5480 -0.2021
12367SOL    HW138542   1.999   7.112  12.121 -0.7036  0.3891  1.1360
12367SOL    HW238543   1.896   7.039  12.038  0.8274  0.2422 -0.7040
12368SOL     OW38544   3.411   0.862   3.238 -0.1410 -0.1754  0.2283
12368SOL    HW138545   3.390   0.954   3.253 -0.4621  0.1321 -1.8736
12368SOL    HW238546   3.502   0.853   3.267 -0.6358  0.3550  2.0642
12369SOL     OW38547   2.548   0.539   6.653 -0.1403  0.2119 -0.0862
12369SOL    HW138548   2.495   0.575   6.582 -1.3354  2.1983  1.7092
12369SOL    HW238549   2.499   0.462   6.682 -0.5581  0.3961 -0.2922
12370SOL     OW38550   6.429   2.129   6.306  0.0728 -0.0803 -0.5043
12370SOL    HW138551   6.393   2.092   6.387 -1.6125  0.5679 -0.9165
12370SOL    HW238552   6.378   2.209   6.291  0.4039 -0.1421 -2.1593
12371SOL     OW38553   7.531   0.578   1.535  0.0501  0.4812  0.4913
12371SOL    HW138554   7.493   0.505   1.486 -1.5022  1.3490  0.3451
12371SOL    HW238555   7.617   0.545   1.563 -0.8079 -1.6137  0.8968
12372SOL     OW38556   2.497   7.863   8.913  0.0121  0.0888  0.0366
12372SOL    HW138557   2.483   7.955   8.939  0.1248 -0.3564  1.7654
12372SOL    HW238558   2.591   7.850   8.922  0.2843  0.2860 -2.0220
12373SOL     OW38559   6.029   3.207   2.127 -0.5907  0.3283 -0.4241
12373SOL    HW138560   5.990   3.120   2.119 -1.8774  0.8438 -0.1051
12373SOL    HW238561   6.095   3.210   2.058  1.9039 -2.0877  1.6478
12374SOL     OW38562   6.541   1.512  10.385 -0.2538  0.1703 -0.2453
12374SOL    HW138563   6.484   1.538  10.458  1.1642  1.6750  0.3934
12374SOL    HW238564   6.565   1.594  10.342  0.2951 -0.5499 -1.3618
12375SOL     OW38565   7.414   7.916  12.315  0.3347  0.2677  0.5742
12375SOL    HW138566   7.470   7.839  12.325  0.2379  0.0479 -0.4102
12375SOL    HW238567   7.468   7.989  12.344 -0.2022 -0.3387  3.3139
12376SOL     OW38568   2.590   7.674   5.348 -0.0012  0.0368 -0.1347
12376SOL    HW138569   2.648   7.601   5.368  2.9474  2.3339  0.4753
12376SOL    HW238570   2.561   7.706   5.434 -0.6916  0.0254 -0.3572
12377SOL     OW38571   2.903   1.906   9.059 -0.0122 -0.1680  0.1890
12377SOL    HW138572   2.857   1.944   8.985  1.2422 -1.5269 -1.3630
12377SOL    HW238573   2.853   1.935   9.136 -0.5735  2.3817 -1.0445
12378SOL     OW38574   3.555   7.669   2.545  0.1442 -0.3770 -0.3456
12378SOL    HW138575   3.461   7.682   2.539  0.0656  0.4713  1.6936
12378SOL    HW238576   3.566   7.579   2.575  0.0174 -0.6080 -0.9815
12379SOL     OW38577   1.584   6.770   6.107 -0.3704  0.9179  0.0520
12379SOL    HW138578   1.532   6.850   6.114  1.3806  2.0909  0.4393
12379SOL    HW238579   1.652   6.792   6.043  1.0647  0.3164  1.3082
12380SOL     OW38580   6.078   3.816  10.714  0.0990 -0.5942  0.5740
12380SOL    HW138581   6.123   3.799  10.632 -0.0073  1.8175 -0.0553
12380SOL    HW238582   6.000   3.866  10.690  0.6137  1.1201  2.1620
12381SOL     OW38583   2.698   7.826   6.792  0.5927  0.2280 -0.2483
12381SOL    HW138584   2.790   7.805   6.778  0.8874  1.2423  0.0517
12381SOL    HW238585   2.677   7.890   6.724 -0.2955 -1.0086 -1.1898
12382SOL     OW38586   6.439   3.868   0.238  0.1433 -0.2711  0.5193
12382SOL    HW138587   6.482   3.949   0.210 -0.2064 -0.0864  0.5179
12382SOL    HW238588   6.383   3.843   0.165  0.8621 -0.9663  0.1807
12383SOL     OW38589   3.317   7.059   3.804 -0.0406  0.2645  0.3036
12383SOL    HW138590   3.334   7.026   3.893 -1.0253 -0.7526  0.1411
12383SOL    HW238591   3.252   6.998   3.768 -0.1795  1.0729 -0.8680
12384SOL     OW38592   2.084   0.803   9.395  0.4304 -0.2474 -0.0218
12384SOL    HW138593   2.009   0.845   9.353  0.0278  0.1501  1.0580
12384SOL    HW238594   2.160   0.849   9.360  0.0835  0.3364 -0.0197
12385SOL     OW38595   2.913   0.085   1.531 -0.2778 -0.2254 -0.0002
12385SOL    HW138596   2.922   0.158   1.470 -0.5252 -1.7011 -1.9048
12385SOL    HW238597   2.886   0.011   1.477 -0.1493 -1.7335  1.8612
12386SOL     OW38598   6.037   4.755   1.343 -0.2642  0.4291  0.0836
12386SOL    HW138599   6.008   4.669   1.371 -0.9837  0.6993  0.1789
12386SOL    HW238600   6.073   4.796   1.421 -0.1578  0.3170  0.0940
12387SOL     OW38601   4.328   1.664   1.535 -0.0664  0.1199  0.2069
12387SOL    HW138602   4.367   1.711   1.609 -0.1799  0.6920 -0.0854
12387SOL    HW238603   4.379   1.695   1.459  0.1034 -0.5213  0.0559
12388SOL     OW38604   3.295   4.292   8.200  0.0769  0.3453  0.0863
12388SOL    HW138605   3.309   4.383   8.223 -3.1621  1.2194 -0.8243
12388SOL    HW238606   3.244   4.256   8.273 -0.2645 -0.1825 -0.3984
12389SOL     OW38607   7.423   0.915   1.056 -0.5874  0.6946  0.0409
12389SOL    HW138608   7.504   0.865   1.068 -1.1533 -0.2559 -0.0498
12389SOL    HW238609   7.378   0.910   1.140 -1.5699 -0.6338 -0.5326
12390SOL     OW38610   3.296   3.580   2.513  0.0681  0.2428 -0.3134
12390SOL    HW138611   3.280   3.543   2.600  0.0795 -2.0852 -1.2394
12390SOL    HW238612   3.391   3.577   2.503 -0.0583 -3.0835 -1.7626
12391SOL     OW38613   7.136   3.700   8.729  0.2819  0.1452  0.1482
12391SOL    HW138614   7.213   3.644   8.734 -0.9038 -1.6220 -0.4228
12391SOL    HW238615   7.063   3.639   8.718 -0.9418  1.8699 -2.1611
12392SOL     OW38616   3.255   6.186   8.547  0.2334 -0.3318 -0.4292
12392SOL    HW138617   3.165   6.189   8.512  0.5017  0.4579 -1.0767
12392SOL    HW238618   3.259   6.102   8.594 -1.1061 -0.0134  0.3311
12393SOL     OW38619   3.853   5.979   1.518 -0.8335 -0.0766  0.0373
12393SOL    HW138620   3.786   6.047   1.524 -1.2879 -0.3371 -1.4924
12393SOL    HW238621   3.805   5.897   1.532 -0.6886 -0.2145 -0.2627
12394SOL     OW38622   7.166   1.950   5.414  0.1421  0.3811  0.2018
12394SOL    HW138623   7.238   1.887   5.410  0.3335  0.5886  0.3589
12394SOL    HW238624   7.149   1.972   5.322 -1.3538 -1.4872 -0.0368
12395SOL     OW38625   3.722   6.274   5.012  0.2183  0.1507 -0.3362
12395SOL    HW138626   3.707   6.190   5.054 -1.2326  0.7842  0.5082
12395SOL    HW238627   3.772   6.325   5.076 -1.5522  0.9410  0.4877
12396SOL     OW38628   4.188   0.215   7.740 -0.3504 -0.1306 -0.5463
12396SOL    HW138629   4.213   0.218   7.648  0.5083  2.7604 -0.3432
12396SOL    HW238630   4.271   0.214   7.787 -0.7781 -0.9410  0.2214
12397SOL     OW38631   7.181   5.967   4.132  0.2450 -0.4492 -0.2796
12397SOL    HW138632   7.171   6.061   4.113 -1.3522 -0.7282 -0.9886
12397SOL    HW238633   7.228   5.965   4.215 -0.7635  1.0310  0.3859
12398SOL     OW38634   3.257   4.961   8.043 -0.1482 -0.1042  0.2375
12398SOL    HW138635   3.336   4.910   8.026 -1.6418 -2.8723  0.9236
12398SOL    HW238636   3.257   5.029   7.976  1.6154 -1.4916 -1.2734
12399SOL     OW38637   6.925   6.673   2.234 -0.1388  0.1461  0.4071
12399SOL    HW138638   7.007   6.722   2.238 -0.2494  0.3764  0.0188
12399SOL    HW238639   6.911   6.641   2.323  0.9204 -0.8210  0.2315
12400SOL     OW38640   7.877   7.534   0.091 -0.0473  0.2969  0.0156
12400SOL    HW138641   7.878   7.477   0.014  0.3754 -0.1765  0.3531
12400SOL    HW238642   7.818   7.490   0.152 -0.4658  0.7268 -0.0769
12401SOL     OW38643   2.158   6.924   8.935  0.4067 -0.1626  0.2383
12401SOL    HW138644   2.153   6.990   8.865  0.8380 -0.2378  0.1314
12401SOL    HW238645   2.209   6.853   8.896  0.0793 -0.4891  0.4087
12402SOL     OW38646   7.711   4.626   0.943  0.3918  0.3471  0.8909
12402SOL    HW138647   7.664   4.684   1.004  0.5702  1.0073  0.4102
12402SOL    HW238648   7.802   4.654   0.950  0.8512 -1.3338  2.2830
12403SOL     OW38649   6.802   7.806   9.582 -0.4920  0.3445  0.2227
12403SOL    HW138650   6.808   7.861   9.504 -0.4888  1.6098  1.0870
12403SOL    HW238651   6.721   7.756   9.569 -1.2846  1.6175  0.0661
12404SOL     OW38652   7.033   3.919   6.451 -0.0345  0.0828  0.0010
12404SOL    HW138653   6.977   3.926   6.373  0.6651  0.4429 -0.4831
12404SOL    HW238654   6.995   3.981   6.513 -0.4830 -0.0592 -0.1258
12405SOL     OW38655   7.765   4.991   1.800  0.0014 -0.5994 -0.1529
12405SOL    HW138656   7.678   4.983   1.760  0.1221  1.8206 -1.0752
12405SOL    HW238657   7.825   5.003   1.727  1.0233 -1.3449  0.5275
12406SOL     OW38658   4.812   0.484  11.170 -0.2054  0.1330 -0.0209
12406SOL    HW138659   4.859   0.475  11.087  0.8937 -1.5654  0.7470
12406SOL    HW238660   4.719   0.477  11.146  0.1413 -2.2836 -0.9578
12407SOL     OW38661   6.152   3.442   7.044 -0.0413 -0.0246  0.2146
12407SOL    HW138662   6.142   3.483   6.958 -0.2186 -1.7321 -0.6250
12407SOL    HW238663   6.138   3.348   7.028 -0.1447 -0.3798  2.1233
12408SOL     OW38664   4.227   5.642   3.770 -0.5138  0.2784  0.3265
12408SOL    HW138665   4.312   5.624   3.809 -0.0704 -1.3462 -1.2541
12408SOL    HW238666   4.165   5.636   3.843  0.5071 -0.4500  1.1584
12409SOL     OW38667   7.567   2.579   8.996  0.1630 -0.4301  0.3535
12409SOL    HW138668   7.623   2.580   9.074 -0.3352 -0.3363  0.7183
12409SOL    HW238669   7.540   2.671   8.986  0.9086 -0.2799 -0.4402
12410SOL     OW38670   7.206   2.413  10.449  0.4308  0.6303 -0.5401
12410SOL    HW138671   7.294   2.403  10.413 -0.0306 -1.3559 -1.2280
12410SOL    HW238672   7.219   2.466  10.528  2.2683  0.1627 -0.4811
12411SOL     OW38673   0.957   3.461   4.707  0.1596 -0.1482  0.4627
12411SOL    HW138674   0.877   3.487   4.661 -0.4342  0.3231  1.6980
12411SOL    HW238675   0.966   3.367   4.691 -1.0507 -0.3475  0.8820
12412SOL     OW38676   2.526   3.687   8.877  0.5352  0.6261 -0.2696
12412SOL    HW138677   2.583   3.614   8.901 -1.3637 -0.9139 -0.1242
12412SOL    HW238678   2.549   3.757   8.938  1.8646 -0.1398  0.1311
12413SOL     OW38679   7.323   0.172   4.970  0.1835  0.3951 -0.1886
12413SOL    HW138680   7.240   0.220   4.968 -0.0754 -0.0266 -2.4168
12413SOL    HW238681   7.381   0.223   4.913  0.0941 -1.4934 -2.1087
12414SOL     OW38682   0.645   2.608   2.932  0.1170 -0.8126 -0.0434
12414SOL    HW138683   0.676   2.617   3.022  0.7905  3.3629 -0.4931
12414SOL    HW238684   0.724   2.609   2.879 -0.2833  2.2695 -0.8036
12415SOL     OW38685   1.873   1.618   2.763 -0.1493 -0.0974 -0.5804
12415SOL    HW138686   1.870   1.535   2.812  0.4356 -0.2744 -0.8414
12415SOL    HW238687   1.795   1.666   2.793 -1.3981 -1.4000 -1.5780
12416SOL     OW38688   5.537   3.830   3.319 -0.1609 -0.0541  0.1621
12416SOL    HW138689   5.529   3.819   3.414 -1.5876  1.8938  0.3261
12416SOL    HW238690   5.472   3.771   3.283 -0.3526 -0.0188  0.4443
12417SOL     OW38691   1.240   0.545  10.021 -0.4072 -0.7978 -0.5935
12417SOL    HW138692   1.232   0.551   9.926  1.7974 -0.5565 -0.8105
12417SOL    HW238693   1.206   0.628  10.053  0.9450  0.1021 -1.3757
12418SOL     OW38694   6.549   3.131  10.581 -0.2579 -0.2539 -0.1600
12418SOL    HW138695   6.595   3.213  10.596 -3.4638  1.4073  1.5732
12418SOL    HW238696   6.463   3.157  10.549 -0.7765 -3.0729 -1.3940
12419SOL     OW38697   2.604   0.724   4.248  0.3133  0.1038 -0.1332
12419SOL    HW138698   2.640   0.729   4.159  1.6612  1.3340  0.4288
12419SOL    HW238699   2.511   0.709   4.235  0.9168 -3.2828 -1.6693
12420SOL     OW38700   7.715   3.107   2.223  0.4580 -0.1863 -0.1049
12420SOL    HW138701   7.717   3.202   2.211  1.7123  0.0466  1.5729
12420SOL    HW238702   7.795   3.075   2.181  0.5543 -0.3747  0.2187
12421SOL     OW38703   4.742   4.062   2.820 -0.1257  0.3984  0.2143
12421SOL    HW138704   4.774   3.972   2.808  0.0402  0.5663 -0.7074
12421SOL    HW238705   4.795   4.114   2.760 -0.3242  1.0956  0.6397
12422SOL     OW38706   3.667   7.551   4.567 -0.3194  0.2763 -0.1022
12422SOL    HW138707   3.761   7.571   4.566 -0.5497  1.5480 -2.1131
12422SOL    HW238708   3.645   7.548   4.660  1.5699  0.6888  0.4148
12423SOL     OW38709   2.394   6.672   5.360  0.0305  0.3322  0.0446
12423SOL    HW138710   2.392   6.638   5.271 -1.0333 -0.6411  0.4001
12423SOL    HW238711   2.412   6.594   5.414  0.5877  0.8956  0.6865
12424SOL     OW38712   4.254   7.262   0.869 -0.0181  0.6781  0.0052
12424SOL    HW138713   4.263   7.267   0.964  0.3074 -0.9680  0.1030
12424SOL    HW238714   4.289   7.344   0.836  0.9325  0.8005  1.2590
12425SOL     OW38715   3.757   4.180   5.320  0.4258 -0.3187 -0.5108
12425SOL    HW138716   3.847   4.155   5.340 -0.0235 -1.2960  0.3956
12425SOL    HW238717   3.729   4.118   5.252 -0.4695 -1.9871  1.2650
12426SOL     OW38718   5.084   0.435   9.939  0.2425  0.7659 -0.7348
12426SOL    HW138719   5.080   0.530   9.931  1.5509  0.8543 -0.5697
12426SOL    HW238720   5.173   0.412   9.912  0.4121 -0.2563  0.5673
12427SOL     OW38721   6.341   0.682   4.183  0.3373 -0.3692 -0.2438
12427SOL    HW138722   6.382   0.606   4.225 -0.3287 -1.3184 -1.2231
12427SOL    HW238723   6.247   0.662   4.185  0.1263  0.5770 -0.2624
12428SOL     OW38724   0.281   0.329   5.941 -0.0757 -0.0834  0.3516
12428SOL    HW138725   0.241   0.254   5.898 -0.7670  0.6858 -0.3547
12428SOL    HW238726   0.240   0.331   6.028  0.2296 -0.7414  0.5194
12429SOL     OW38727   0.532   4.668   3.623 -0.1088  0.6202 -0.2233
12429SOL    HW138728   0.626   4.671   3.606  0.0342 -0.2205  0.3728
12429SOL    HW238729   0.525   4.630   3.710 -1.0708 -1.6582 -1.2175
12430SOL     OW38730   4.904   1.517   2.078  0.7777 -0.5513  0.0799
12430SOL    HW138731   4.956   1.481   2.150  0.3460  0.2921  0.8234
12430SOL    HW238732   4.837   1.451   2.062  0.2256 -0.2830  1.1808
12431SOL     OW38733   0.508   5.963   2.395  0.5683 -0.2252  0.5013
12431SOL    HW138734   0.501   6.058   2.392  0.2571 -0.2460 -2.0637
12431SOL    HW238735   0.602   5.947   2.399  0.6222  0.1963  0.9782
12432SOL     OW38736   7.543   2.724   3.553 -0.5203 -0.1410  0.0210
12432SOL    HW138737   7.474   2.698   3.492 -0.0320  0.1724 -0.6815
12432SOL    HW238738   7.625   2.703   3.507 -0.1433 -0.8854  1.0057
12433SOL     OW38739   1.495   2.890   7.823  0.6504  0.2366  0.4616
12433SOL    HW138740   1.536   2.897   7.737 -0.3821 -0.9643 -0.1527
12433SOL    HW238741   1.407   2.927   7.811  0.0557 -1.0500  0.6462
12434SOL     OW38742   2.329   7.668   0.515  0.1415 -0.0133 -0.3070
12434SOL    HW138743   2.396   7.611   0.476 -0.9256 -1.1300 -0.5502
12434SOL    HW238744   2.378   7.725   0.574  1.1205 -1.9805  0.8651
12435SOL     OW38745   0.536   3.719   5.935 -0.4291  0.6094 -0.8236
12435SOL    HW138746   0.515   3.654   5.868  0.6055  0.4585 -1.0062
12435SOL    HW238747   0.550   3.800   5.886  3.1567 -0.0652 -1.2043
12436SOL     OW38748   3.435   3.298   2.427 -0.3559 -0.3455  0.6509
12436SOL    HW138749   3.343   3.275   2.441 -0.2402 -2.9540 -1.7627
12436SOL    HW238750   3.433   3.364   2.358 -0.4361  0.5490  1.4997
12437SOL     OW38751   6.088   5.644   0.636 -0.3736 -0.1849  0.5300
12437SOL    HW138752   6.069   5.712   0.700  3.2153  0.4040  1.2052
12437SOL    HW238753   6.097   5.564   0.688 -0.1450 -0.2450  0.4017
12438SOL     OW38754   5.926   0.283  12.287  0.0610  0.0958  0.8274
12438SOL    HW138755   5.833   0.284  12.312 -0.3059 -0.2236 -0.4899
12438SOL    HW238756   5.931   0.342  12.212  0.5340 -1.4446 -0.3994
12439SOL     OW38757   4.608   3.776   3.232  0.1025  0.4093 -0.5338
12439SOL    HW138758   4.548   3.840   3.193  0.0451  0.7916  0.1793
12439SOL    HW238759   4.691   3.823   3.239  0.4900 -0.0987 -1.4616
12440SOL     OW38760   0.864   1.219   2.444 -0.2196  0.1601  0.6460
12440SOL    HW138761   0.789   1.267   2.478  0.3593 -0.3194  2.7573
12440SOL    HW238762   0.936   1.283   2.446 -0.1354  0.0714  0.4829
12441SOL     OW38763   2.990   1.546   2.989  0.0813 -0.0936  0.0913
12441SOL    HW138764   3.074   1.554   3.035 -0.3722  0.5428  0.8246
12441SOL    HW238765   2.992   1.615   2.923 -0.6341  1.1779  1.3563
12442SOL     OW38766   0.784   2.344  12.107 -0.3248 -0.2137 -0.0025
12442SOL    HW138767   0.704   2.389  12.080 -0.7757  0.4114  2.1942
12442SOL    HW238768   0.842   2.414  12.136 -0.2428 -0.8588  1.4760
12443SOL     OW38769   5.135   4.871   5.640  0.1271  0.2597  0.3193
12443SOL    HW138770   5.150   4.891   5.547  0.6463  0.2357  0.3920
12443SOL    HW238771   5.056   4.920   5.663  0.1688  0.5068 -0.0591
12444SOL     OW38772   7.882   3.282  11.237  0.1991 -0.0147 -0.6681
12444SOL    HW138773   7.916   3.354  11.292 -0.0768 -0.8516  0.6456
12444SOL    HW238774   7.804   3.318  11.196 -0.5453  0.1345  0.8199
12445SOL     OW38775   2.814   0.506   6.701  0.3139  0.1871 -0.4492
12445SOL    HW138776   2.727   0.535   6.673 -1.1077 -1.1002  2.2801
12445SOL    HW238777   2.818   0.414   6.675 -0.2656 -0.4859  1.6512
12446SOL     OW38778   0.232   7.067   6.315 -0.1093 -0.9008 -0.6726
12446SOL    HW138779   0.142   7.091   6.338 -0.3471  0.3196 -2.5895
12446SOL    HW238780   0.239   6.974   6.336 -1.6538 -0.8980 -0.0381
12447SOL     OW38781   1.508   7.754   8.846 -0.3969  0.2720 -0.3410
12447SOL    HW138782   1.435   7.694   8.860  1.7453 -2.1305  1.6251
12447SOL    HW238783   1.529   7.786   8.934  1.9781 -0.5635 -0.5310
12448SOL     OW38784   7.536   5.365   8.485 -0.4798 -0.0085 -0.0284
12448SOL    HW138785   7.591   5.287   8.487 -0.4271  0.0470  0.6189
12448SOL    HW238786   7.492   5.366   8.569  1.0028  1.7231  0.7931
12449SOL     OW38787   7.137   6.572   5.778 -0.0196  0.5075  0.0968
12449SOL    HW138788   7.060   6.605   5.733 -0.7940 -0.6861  0.5154
12449SOL    HW238789   7.159   6.641   5.841 -1.8079  0.1338  1.1939
12450SOL     OW38790   1.678   2.677   7.129  0.1784 -0.3188  0.4985
12450SOL    HW138791   1.704   2.617   7.200  2.0859  0.8305  0.8519
12450SOL    HW238792   1.642   2.753   7.175 -0.7319 -0.4944  0.1046
12451SOL     OW38793   0.097   5.221   6.858  0.4126 -0.6223 -0.2200
12451SOL    HW138794   0.137   5.135   6.872  1.6364 -0.4024 -2.0612
12451SOL    HW238795   0.149   5.280   6.912  1.9512 -0.5198 -1.7249
12452SOL     OW38796   0.356   4.166  12.182 -0.1552  0.3663  0.1554
12452SOL    HW138797   0.334   4.210  12.264  1.5955  0.2785  0.7118
12452SOL    HW238798   0.353   4.072  12.203 -0.9048  0.2960 -0.2257
12453SOL     OW38799   7.944   2.096   4.788 -0.4542  0.0651  0.4619
12453SOL    HW138800   7.948   2.001   4.780  1.3435  0.1314  0.2222
12453SOL    HW238801   7.993   2.116   4.867 -1.9107  0.7429  1.2505
12454SOL     OW38802   7.685   4.642  11.543  0.6133 -0.7867  0.3680
12454SOL    HW138803   7.622   4.572  11.558  0.0389 -0.1528  1.0355
12454SOL    HW238804   7.704   4.639  11.449 -1.6170 -0.0159 -0.1576
12455SOL     OW38805   5.078   6.713   0.792  0.2220  0.2417 -0.2416
12455SOL    HW138806   5.035   6.634   0.824  0.6100  0.1389  0.0365
12455SOL    HW238807   5.148   6.680   0.735  0.4336  0.3802 -0.0628
12456SOL     OW38808   6.369   6.991   1.781  0.0126  0.8714  0.0942
12456SOL    HW138809   6.300   7.049   1.813  0.3993  0.7533  1.1827
12456SOL    HW238810   6.437   6.995   1.849  0.7661  0.4364 -0.6177
12457SOL     OW38811   4.372   2.597   3.126 -0.7112 -0.3502 -0.4048
12457SOL    HW138812   4.435   2.657   3.085 -0.0402  0.6092  1.9076
12457SOL    HW238813   4.410   2.511   3.113 -0.8268 -0.1793 -2.2542
12458SOL     OW38814   3.935   7.557   9.895  0.7095 -0.7971  0.1382
12458SOL    HW138815   3.883   7.482   9.866 -0.0537  0.1618 -1.0777
12458SOL    HW238816   3.903   7.630   9.842  1.7562  0.2954  0.9634
12459SOL     OW38817   1.486   2.319   5.511 -0.0674 -0.2970  0.0331
12459SOL    HW138818   1.561   2.324   5.570  0.7038 -0.6463 -0.8910
12459SOL    HW238819   1.524   2.318   5.423 -1.0649 -1.8343 -0.4316
12460SOL     OW38820   3.662   1.062   9.583 -0.1370 -0.3049 -0.8438
12460SOL    HW138821   3.676   0.986   9.639 -2.0934 -0.6405 -0.7309
12460SOL    HW238822   3.722   1.050   9.510  1.6558 -0.4289  0.5803
12461SOL     OW38823   6.778   7.162   0.445 -0.1152  0.5726  0.2437
12461SOL    HW138824   6.710   7.184   0.382  0.1641 -1.6228 -0.9257
12461SOL    HW238825   6.843   7.232   0.436  0.4860 -0.2323 -2.8318
12462SOL     OW38826   2.968   1.602   7.483  0.0222  0.4863  0.0234
12462SOL    HW138827   2.930   1.523   7.521  1.7030 -0.1327  0.5547
12462SOL    HW238828   2.955   1.592   7.389  0.2123 -0.4482  0.0855
12463SOL     OW38829   2.788   1.186  11.985  0.3698  0.2928  0.1768
12463SOL    HW138830   2.867   1.231  12.016 -0.2364  2.0978 -0.8167
12463SOL    HW238831   2.798   1.182  11.890 -0.2715 -0.3913  0.1289
12464SOL     OW38832   2.326   6.785   1.184  0.4799 -0.2146  0.3133
12464SOL    HW138833   2.410   6.831   1.188  0.5922 -0.0721 -2.2117
12464SOL    HW238834   2.340   6.717   1.118 -0.9627 -1.1658  0.9462
12465SOL     OW38835   7.255   1.635   4.995 -0.1258 -0.3573  0.1845
12465SOL    HW138836   7.164   1.615   4.974 -0.6284  0.3806  1.5498
12465SOL    HW238837   7.272   1.587   5.076  1.4940 -2.4430 -1.2538
12466SOL     OW38838   3.548   1.704   0.340 -0.0543  0.1700 -0.3398
12466SOL    HW138839   3.504   1.715   0.255 -0.5632 -0.6904 -0.1929
12466SOL    HW238840   3.507   1.627   0.378  1.0062 -0.1465  0.1744
12467SOL     OW38841   0.492   5.093   3.675  0.3298  0.2238  0.1334
12467SOL    HW138842   0.577   5.057   3.700  0.0957 -1.3107 -1.0954
12467SOL    HW238843   0.512   5.160   3.609  0.7003  1.7096  1.6772
12468SOL     OW38844   5.425   7.020  11.977  0.0851 -0.0387  0.1986
12468SOL    HW138845   5.391   6.979  12.057 -0.9288 -3.3123 -1.7024
12468SOL    HW238846   5.519   7.002  11.979  0.0635 -0.1076  0.6414
12469SOL     OW38847   4.378   5.809   8.362  0.2546 -0.0729  0.4686
12469SOL    HW138848   4.416   5.776   8.444 -1.5726  2.2037  2.3822
12469SOL    HW238849   4.297   5.759   8.351  0.3408 -0.1594  0.2253
12470SOL     OW38850   2.869   3.685   2.966 -0.5400  0.2954 -0.0222
12470SOL    HW138851   2.938   3.648   3.022 -0.0587 -1.1752 -1.5027
12470SOL    HW238852   2.802   3.617   2.962 -0.4579  0.2693 -1.3900
12471SOL     OW38853   5.720   0.559   6.908  0.1119  0.2956 -0.0926
12471SOL    HW138854   5.647   0.583   6.966  2.0372 -1.1293  3.2299
12471SOL    HW238855   5.797   0.598   6.949  1.8299 -2.2528 -0.6452
12472SOL     OW38856   4.463   1.130   8.642 -0.1907 -0.1701 -0.3272
12472SOL    HW138857   4.399   1.200   8.633  0.1572  0.0743 -0.9269
12472SOL    HW238858   4.421   1.066   8.699  0.1220  1.2773  1.6437
12473SOL     OW38859   2.570   6.911   9.373  0.2689 -0.5793  0.4158
12473SOL    HW138860   2.524   6.842   9.325  0.7921  0.5441 -1.8242
12473SOL    HW238861   2.521   6.920   9.455 -1.8810 -1.2727 -0.7193
12474SOL     OW38862   3.380   0.200   0.308  0.3170 -0.2864 -0.2877
12474SOL    HW138863   3.391   0.244   0.224 -1.3508 -1.2141 -1.0429
12474SOL    HW238864   3.312   0.135   0.292 -0.3389 -0.2106  1.8892
12475SOL     OW38865   7.421   4.233   3.022  0.0358  0.3945 -0.5738
12475SOL    HW138866   7.437   4.197   2.936  0.3600 -0.3897 -0.1917
12475SOL    HW238867   7.368   4.167   3.067 -0.9409  1.2038 -0.4823
12476SOL     OW38868   4.827   2.935  10.805  0.0273  0.2172  0.4858
12476SOL    HW138869   4.746   2.979  10.832 -0.3394 -1.2024  1.8757
12476SOL    HW238870   4.798   2.854  10.764  0.6995  1.0722 -1.8668
12477SOL     OW38871   6.249   5.102  11.597 -0.9888  0.4752  0.1246
12477SOL    HW138872   6.225   5.051  11.520  1.5690 -3.0781  1.4411
12477SOL    HW238873   6.184   5.077  11.663 -0.0249 -0.8415  0.6217
12478SOL     OW38874   1.885   0.721   8.202  0.1340 -0.3917  0.3266
12478SOL    HW138875   1.920   0.803   8.238  0.3171  0.2253 -1.1522
12478SOL    HW238876   1.957   0.659   8.209  2.0813  1.1056 -3.5124
12479SOL     OW38877   4.627   5.415   9.202 -0.7126 -0.3457  0.1226
12479SOL    HW138878   4.694   5.446   9.263 -2.5809  1.8723  1.2036
12479SOL    HW238879   4.672   5.409   9.118  1.5074 -1.7414  1.3014
12480SOL     OW38880   4.642   4.546   7.996 -0.1213 -0.0954  0.1983
12480SOL    HW138881   4.560   4.500   7.978 -0.0295 -0.8608  1.6128
12480SOL    HW238882   4.655   4.537   8.091  2.0201 -0.7152 -0.0873
12481SOL     OW38883   0.917   5.534  11.948  0.1299 -0.5068  0.2256
12481SOL    HW138884   0.926   5.446  11.912  0.1682 -0.4503  0.0955
12481SOL    HW238885   0.840   5.529  12.004 -0.3446 -0.4171 -0.4097
12482SOL     OW38886   3.083   5.394   6.669 -0.2464  0.3085 -0.1988
12482SOL    HW138887   3.029   5.432   6.737  0.0966  0.2410  0.1129
12482SOL    HW238888   3.147   5.462   6.648 -0.1597  0.2173 -0.2348
12483SOL     OW38889   3.021   0.542   4.708  0.3045 -0.1302 -0.2622
12483SOL    HW138890   3.002   0.501   4.624  0.0749 -1.2510  0.3182
12483SOL    HW238891   3.062   0.473   4.761 -1.1152  0.0303  1.1310
12484SOL     OW38892   3.192   4.307   0.095 -0.4520  0.2856  0.3710
12484SOL    HW138893   3.226   4.331   0.181  0.4277  1.1324 -0.1863
12484SOL    HW238894   3.163   4.390   0.057 -1.3488 -0.1600  0.0587
12485SOL     OW38895   5.985   1.401   3.636  0.1398  0.2250 -0.2234
12485SOL    HW138896   6.025   1.487   3.644 -0.1609  0.3735 -0.2921
12485SOL    HW238897   5.895   1.414   3.666  0.2099 -0.1583  0.1764
12486SOL     OW38898   4.206   6.387   8.369 -0.5313 -0.2371  0.0080
12486SOL    HW138899   4.118   6.414   8.392 -0.3253 -0.9176  1.7453
12486SOL    HW238900   4.263   6.435   8.429  0.1086 -1.4457  0.4007
12487SOL     OW38901   4.646   7.808  11.496 -0.2753 -0.2320 -0.1489
12487SOL    HW138902   4.722   7.820  11.553  0.1903 -0.2017 -0.7640
12487SOL    HW238903   4.609   7.896  11.488  1.3087  0.3507 -2.1270
12488SOL     OW38904   6.684   5.562   1.371  0.3482 -0.4780 -0.2110
12488SOL    HW138905   6.639   5.501   1.313  1.3954 -0.6900 -0.8216
12488SOL    HW238906   6.745   5.609   1.314  2.2172 -1.4683  0.8374
12489SOL     OW38907   4.558   2.599  11.211 -0.1377 -0.8144 -0.4545
12489SOL    HW138908   4.506   2.522  11.188 -0.4444 -1.3958  1.9282
12489SOL    HW238909   4.640   2.563  11.244  0.0428 -0.0783 -0.0837
12490SOL     OW38910   3.572   2.022   7.251 -0.4492  0.2958  0.2767
12490SOL    HW138911   3.580   2.023   7.155  0.6680  0.0500  0.3535
12490SOL    HW238912   3.549   1.932   7.272 -3.5003  0.9015  0.0903
12491SOL     OW38913   5.409   2.103  10.860 -0.0194 -0.0149  0.1528
12491SOL    HW138914   5.365   2.095  10.944  1.3387 -0.7512  0.8189
12491SOL    HW238915   5.345   2.145  10.803 -1.3795 -0.5544  1.2368
12492SOL     OW38916   7.039   1.996   0.901 -0.2006  0.5104 -0.3042
12492SOL    HW138917   7.039   2.078   0.853 -0.5143  1.1652  0.7707
12492SOL    HW238918   7.041   2.022   0.993 -0.1495 -0.6900  0.0553
12493SOL     OW38919   1.099   5.877   4.161 -0.0940  0.4469  0.1379
12493SOL    HW138920   1.157   5.832   4.099 -0.8660 -0.1155 -0.1825
12493SOL    HW238921   1.128   5.968   4.158 -0.7932  0.6571 -1.8781
12494SOL     OW38922   1.778   4.104   6.420  0.2016  0.1787 -0.4610
12494SOL    HW138923   1.860   4.109   6.371  1.3844 -0.6880  1.3030
12494SOL    HW238924   1.719   4.164   6.375  1.2339 -0.4651 -2.8177
12495SOL     OW38925   7.503   2.428  11.512 -0.1814  0.2845 -0.2637
12495SOL    HW138926   7.422   2.479  11.515 -0.8219 -0.6661  3.2757
12495SOL    HW238927   7.475   2.338  11.497  0.4507  0.2287 -1.1965
12496SOL     OW38928   7.278   3.079   6.790  0.5562 -0.7132  0.1723
12496SOL    HW138929   7.236   3.151   6.743 -0.6118 -2.6408 -1.9014
12496SOL    HW238930   7.357   3.118   6.827  1.8205  0.9889 -3.7230
12497SOL     OW38931   0.373   3.795   5.481  0.2965  0.1855  0.3649
12497SOL    HW138932   0.305   3.863   5.475 -2.9929 -2.7824  0.7030
12497SOL    HW238933   0.450   3.835   5.441 -1.6887  3.7105 -0.3867
12498SOL     OW38934   3.132   0.224   7.508  0.8151 -0.1393  0.2382
12498SOL    HW138935   3.153   0.142   7.552  1.3691 -0.0166  0.2079
12498SOL    HW238936   3.051   0.254   7.550  0.4944 -0.7994  0.1045
12499SOL     OW38937   7.946   0.317   6.793  0.3249 -0.2885  0.2394
12499SOL    HW138938   7.928   0.387   6.857 -1.2608  0.8259 -1.3142
12499SOL    HW238939   7.865   0.267   6.789 -0.0467  0.3778 -1.6877
12500SOL     OW38940   3.473   6.852   6.747 -0.0465 -0.2832  0.0354
12500SOL    HW138941   3.549   6.804   6.782 -0.6178 -2.3620 -1.3892
12500SOL    HW238942   3.422   6.875   6.824  0.8000 -1.0740  0.8622
12501SOL     OW38943   4.302   1.244   0.347  0.0767 -0.2244 -0.2676
12501SOL    HW138944   4.308   1.333   0.383  0.2337  0.8676 -2.7998
12501SOL    HW238945   4.262   1.193   0.418  2.5765  1.1577  2.3471
12502SOL     OW38946   2.673   0.433   1.458 -0.2820 -0.6539  0.4622
12502SOL    HW138947   2.763   0.404   1.442  0.4517  2.3453 -1.7391
12502SOL    HW238948   2.632   0.434   1.372 -1.5266  0.6897  1.0257
12503SOL     OW38949   0.459   1.108   0.698  0.4845 -0.2607 -0.4333
12503SOL    HW138950   0.398   1.045   0.660  0.4295  0.3704 -1.4194
12503SOL    HW238951   0.442   1.103   0.793  0.1320 -1.3423 -0.5431
12504SOL     OW38952   4.841   1.986   7.738  0.6459  0.1318  0.2271
12504SOL    HW138953   4.869   2.052   7.801  1.6820 -1.7748  1.8486
12504SOL    HW238954   4.923   1.950   7.703  0.1033  0.8903 -2.0382
12505SOL     OW38955   2.395   0.276   8.785  0.0640  0.3683 -0.3041
12505SOL    HW138956   2.436   0.358   8.809  0.4061  0.1737 -0.2186
12505SOL    HW238957   2.304   0.285   8.814  0.0242  0.8294 -0.5646
12506SOL     OW38958   6.411   4.175  11.733  0.1726  0.1854 -0.2505
12506SOL    HW138959   6.400   4.095  11.683  1.6618  0.3867 -0.9630
12506SOL    HW238960   6.445   4.239  11.670  0.5229  0.9216  0.6436
12507SOL     OW38961   6.458   7.428   9.811 -0.7278  0.0562 -0.5295
12507SOL    HW138962   6.367   7.455   9.801 -0.6125  0.4793 -0.4540
12507SOL    HW238963   6.500   7.453   9.729 -0.4509  0.8182 -0.1724
12508SOL     OW38964   7.027   5.549   4.603 -0.1093  0.1239  0.3024
12508SOL    HW138965   7.030   5.634   4.648  0.8390  1.0887 -1.5100
12508SOL    HW238966   6.953   5.504   4.644 -0.3150  1.6010  1.6681
12509SOL     OW38967   1.786   3.621   7.876  0.3035 -0.5833  0.0979
12509SOL    HW138968   1.870   3.595   7.916  0.7068  2.7195  1.7197
12509SOL    HW238969   1.810   3.673   7.800 -0.3652 -1.1631 -0.5275
12510SOL     OW38970   3.251   0.538   4.390  0.0289 -0.2162  0.0373
12510SOL    HW138971   3.251   0.445   4.366  0.1515  0.2727 -2.0084
12510SOL    HW238972   3.324   0.547   4.451  1.3094 -1.1114 -1.3110
12511SOL     OW38973   7.927   7.711   4.559 -0.3163 -0.2438 -0.3918
12511SOL    HW138974   7.998   7.739   4.617 -0.3320 -1.8276  0.4470
12511SOL    HW238975   7.969   7.651   4.498 -0.2794  1.4948 -2.1732
12512SOL     OW38976   5.143   3.061   7.710  0.6218 -0.4405 -0.5404
12512SOL    HW138977   5.181   3.098   7.790  1.9227 -3.6776  0.5121
12512SOL    HW238978   5.216   3.017   7.668 -0.3540  0.0587 -2.8910
12513SOL     OW38979   6.894   0.068   1.916  0.0099 -0.1198 -0.4295
12513SOL    HW138980   6.916   0.055   1.824 -0.2038  0.2253 -0.5303
12513SOL    HW238981   6.916   0.160   1.933 -0.9870  0.1292 -0.4303
12514SOL     OW38982   5.552   6.670   2.135  0.3953 -0.1447  0.2018
12514SOL    HW138983   5.466   6.646   2.171  0.5519  0.1917  0.8030
12514SOL    HW238984   5.615   6.644   2.202  0.9247 -1.8460 -0.8807
12515SOL     OW38985   6.843   6.210   2.226 -0.3422  0.0944  0.1504
12515SOL    HW138986   6.871   6.279   2.165  0.5170  0.3379  0.8025
12515SOL    HW238987   6.921   6.157   2.239 -0.8380 -0.6477  0.1379
12516SOL     OW38988   7.230   0.606   9.308  0.5222  0.3068  0.3118
12516SOL    HW138989   7.297   0.631   9.246  0.4629 -1.0966 -0.3553
12516SOL    HW238990   7.276   0.600   9.392  1.0574  0.1562  0.0117
12517SOL     OW38991   5.836   0.729  11.748 -0.5652 -0.0459  0.4609
12517SOL    HW138992   5.931   0.717  11.755 -0.3205  1.4780  0.1150
12517SOL    HW238993   5.803   0.642  11.727  0.7283 -0.6550  0.8043
12518SOL     OW38994   5.645   5.424  10.172  0.3272  0.2764  0.0812
12518SOL    HW138995   5.581   5.421  10.101  0.4972  1.6845 -0.1585
12518SOL    HW238996   5.711   5.359  10.148 -0.0903  0.0860 -0.5703
12519SOL     OW38997   7.960   6.526   7.685  0.1215  0.1165  0.1739
12519SOL    HW138998   7.904   6.480   7.623  0.3326 -1.2868  0.9712
12519SOL    HW238999   8.048   6.521   7.646  0.2664 -0.8281  0.5895
12520SOL     OW39000   6.359   1.064   1.967 -0.2054  0.1197 -0.2251
12520SOL    HW139001   6.443   1.079   1.924 -0.2700  1.7446  0.1414
12520SOL    HW239002   6.381   1.052   2.059 -0.3838  0.9053 -0.0721
12521SOL     OW39003   5.422   2.931   8.397  0.0175  0.2706 -0.1056
12521SOL    HW139004   5.472   2.850   8.406  2.4556  1.5089 -1.3320
12521SOL    HW239005   5.334   2.903   8.374  0.3253 -2.0351  1.2203
12522SOL     OW39006   7.920   3.775  12.009 -0.0312 -0.3855  0.6074
12522SOL    HW139007   7.852   3.763  11.942  0.3688 -0.4216  0.1985
12522SOL    HW239008   7.921   3.869  12.026 -0.5545 -0.4522  1.0119
12523SOL     OW39009   1.320   5.600   8.527  0.2465 -0.1902  0.0191
12523SOL    HW139010   1.404   5.581   8.568 -0.3649 -0.8178  1.0185
12523SOL    HW239011   1.273   5.653   8.591 -0.0056  0.4654 -0.6784
12524SOL     OW39012   5.247   7.894   3.102 -0.1121 -0.3182 -0.4049
12524SOL    HW139013   5.217   7.809   3.070 -2.1725  0.8461 -1.8113
12524SOL    HW239014   5.169   7.933   3.143  0.7735  0.9088  0.1783
12525SOL     OW39015   2.434   6.729   3.979 -0.0164 -0.1013 -0.0790
12525SOL    HW139016   2.380   6.808   3.983 -0.7851 -0.5446 -1.2040
12525SOL    HW239017   2.495   6.745   3.907  0.5307 -0.1221  0.3683
12526SOL     OW39018   7.465   7.749   9.227  0.4304  0.0673  0.1362
12526SOL    HW139019   7.445   7.789   9.143  1.4089 -0.0144 -0.1441
12526SOL    HW239020   7.423   7.663   9.223 -1.4966  0.9277  0.6556
12527SOL     OW39021   7.775   2.537   4.893 -0.6115 -0.2440 -0.1934
12527SOL    HW139022   7.757   2.452   4.854 -2.3824  0.9581 -2.2374
12527SOL    HW239023   7.728   2.599   4.838 -0.9748  1.9072  2.3092
12528SOL     OW39024   0.354   1.475  10.654  0.2756 -0.5376 -0.1061
12528SOL    HW139025   0.381   1.558  10.693 -1.6100  1.2523 -2.3357
12528SOL    HW239026   0.436   1.436  10.623  1.1058  0.9849  0.0624
12529SOL     OW39027   0.497   3.336   3.618  0.1812 -0.6283 -0.1548
12529SOL    HW139028   0.431   3.269   3.600  0.2501 -0.9504  0.7306
12529SOL    HW239029   0.482   3.361   3.710 -0.0617  0.8188 -0.5583
12530SOL     OW39030   3.911   7.576   6.387  0.1870  0.1330 -0.1146
12530SOL    HW139031   3.827   7.583   6.431  0.9471 -1.6720  1.7723
12530SOL    HW239032   3.930   7.482   6.385  0.5519  0.1294 -3.7470
12531SOL     OW39033   5.839   2.996   7.327 -0.4575  0.4400 -0.0668
12531SOL    HW139034   5.787   3.063   7.283  0.2126  0.3823 -0.9676
12531SOL    HW239035   5.876   2.943   7.256 -0.0517 -0.1852  0.5936
12532SOL     OW39036   5.651   0.640   2.969  0.4954 -0.0603 -0.8280
12532SOL    HW139037   5.638   0.556   2.926 -0.2510  0.8876 -2.5525
12532SOL    HW239038   5.570   0.654   3.019 -0.9088  1.1363 -3.2915
12533SOL     OW39039   5.283   5.193  11.896 -0.4643 -0.2162 -0.1384
12533SOL    HW139040   5.209   5.214  11.954 -0.3966 -1.2890  0.3660
12533SOL    HW239041   5.310   5.106  11.923  1.0496  0.1834 -0.2776
12534SOL     OW39042   6.263   1.496  10.280 -0.0000 -0.1345  0.8598
12534SOL    HW139043   6.228   1.585  10.279  0.2530 -0.0337  0.6352
12534SOL    HW239044   6.354   1.506  10.250 -0.5650 -0.7044 -1.2390
12535SOL     OW39045   0.839   6.064   9.685 -0.5131  0.3852  0.2344
12535SOL    HW139046   0.828   6.097   9.596  0.8485  1.0216  0.2731
12535SOL    HW239047   0.884   5.980   9.675 -0.2471  0.5153  0.3230
12536SOL     OW39048   3.475   0.856   5.418 -0.1307  0.2386  0.2379
12536SOL    HW139049   3.427   0.773   5.416  0.0748  0.1004  0.8824
12536SOL    HW239050   3.450   0.896   5.500  1.8184 -0.4281  1.2344
12537SOL     OW39051   3.332   7.890  10.704 -0.1754  0.3806 -0.2777
12537SOL    HW139052   3.302   7.955  10.768 -0.3982 -0.7700  0.8208
12537SOL    HW239053   3.424   7.876  10.726 -0.5127 -0.7737  0.4939
12538SOL     OW39054   4.514   3.208   8.983  0.2950  0.5388  0.0845
12538SOL    HW139055   4.542   3.284   8.932  1.9478  0.0677  0.2592
12538SOL    HW239056   4.566   3.211   9.063 -1.0042  0.2704  0.9885
12539SOL     OW39057   3.742   7.846   5.748 -0.8201 -1.1130 -0.0057
12539SOL    HW139058   3.807   7.878   5.811 -0.8771 -0.3124 -0.3408
12539SOL    HW239059   3.788   7.780   5.697 -0.1310 -0.2805 -0.4992
12540SOL     OW39060   0.050   4.588   0.345  0.4341 -0.1131  0.0665
12540SOL    HW139061   0.031   4.532   0.270  0.5131  1.2024 -0.9523
12540SOL    HW239062   0.144   4.606   0.339  0.4674 -0.0891  0.5611
12541SOL     OW39063   2.727   6.611  10.245 -0.4186 -0.1292  0.0868
12541SOL    HW139064   2.722   6.679  10.313 -0.1892 -0.1890  0.1632
12541SOL    HW239065   2.820   6.601  10.228 -0.2324 -2.3501  2.0099
12542SOL     OW39066   1.727   0.501   8.274 -0.1020  0.1720  0.4079
12542SOL    HW139067   1.637   0.518   8.247  0.0808 -0.2005 -0.4353
12542SOL    HW239068   1.776   0.576   8.241 -0.1452  0.5333  1.1406
12543SOL     OW39069   6.025   7.117   1.046 -0.2614  0.3076  0.2697
12543SOL    HW139070   6.054   7.079   0.963  1.1260 -1.3559  1.4349
12543SOL    HW239071   5.943   7.072   1.065  0.4745 -0.8867  0.7647
12544SOL     OW39072   7.489   4.781   7.292 -0.2260 -0.5492  0.3327
12544SOL    HW139073   7.507   4.843   7.363 -2.2380 -1.4047  1.6865
12544SOL    HW239074   7.461   4.701   7.337  0.1542 -1.7318 -1.4196
12545SOL     OW39075   3.249   6.717   7.281 -0.2376 -0.0662  0.5491
12545SOL    HW139076   3.245   6.812   7.282 -3.6206 -0.1065  1.0701
12545SOL    HW239077   3.265   6.693   7.372 -0.3118  0.0019  0.5799
12546SOL     OW39078   5.131   5.475   2.634  0.0748 -0.0225  0.0415
12546SOL    HW139079   5.211   5.422   2.632 -1.6306 -2.8225 -1.5189
12546SOL    HW239080   5.076   5.432   2.700 -0.6899  0.9116  0.0247
12547SOL     OW39081   1.771   3.561   9.811 -0.0348  0.4134 -0.8621
12547SOL    HW139082   1.724   3.554   9.894  0.3765  1.3101 -0.5444
12547SOL    HW239083   1.736   3.641   9.770 -1.5035 -0.9273 -2.3762
12548SOL     OW39084   0.199   2.627   0.502  0.6565 -0.2996 -0.3448
12548SOL    HW139085   0.245   2.567   0.445  1.3946  0.2320 -0.3236
12548SOL    HW239086   0.247   2.624   0.585  1.2633  0.9742 -0.6195
12549SOL     OW39087   4.528   7.339  10.015 -0.4730 -0.4525  0.0307
12549SOL    HW139088   4.493   7.429  10.017  1.7050  0.4938 -0.7495
12549SOL    HW239089   4.459   7.287   9.974 -1.4475  1.0536 -0.3172
12550SOL     OW39090   7.902   6.194  11.336  0.2664  0.1328  0.0947
12550SOL    HW139091   7.996   6.205  11.324  0.1996  1.3553  0.4828
12550SOL    HW239092   7.887   6.217  11.427 -0.6298  1.8756 -0.4451
12551SOL     OW39093   5.376   1.811  10.418 -0.1692  0.5348 -0.0286
12551SOL    HW139094   5.447   1.749  10.406 -1.2773 -0.8013  0.0034
12551SOL    HW239095   5.363   1.816  10.512 -1.7063 -1.2075 -0.0757
12552SOL     OW39096   6.593   1.681   5.237 -0.4823 -0.1718  0.7868
12552SOL    HW139097   6.636   1.696   5.154 -0.9242 -2.6203  0.0196
12552SOL    HW239098   6.664   1.658   5.297 -0.2565  0.6863  0.8565
12553SOL     OW39099   1.001   5.468   2.072  0.5802 -0.1960  0.6459
12553SOL    HW139100   1.048   5.507   1.997  1.2671 -0.4749  0.9233
12553SOL    HW239101   0.933   5.415   2.032 -2.3187  3.4480  0.2126
12554SOL     OW39102   7.018   2.367   8.289 -0.1040  0.3178 -0.7375
12554SOL    HW139103   7.009   2.388   8.196 -1.8950 -1.4445 -1.0409
12554SOL    HW239104   6.957   2.426   8.333 -0.1556  0.3355 -0.8320
12555SOL     OW39105   2.791   2.635   8.195  0.2069  0.0099 -0.0013
12555SOL    HW139106   2.852   2.631   8.121 -0.5807 -0.9585 -0.6094
12555SOL    HW239107   2.799   2.550   8.238 -0.3282  0.0733  0.2301
12556SOL     OW39108   3.591   0.957   5.895  0.1345  0.1242 -0.0846
12556SOL    HW139109   3.496   0.957   5.908  0.4892 -0.1871  3.6720
12556SOL    HW239110   3.615   1.049   5.894  0.0915  0.3337  3.6660
12557SOL     OW39111   6.251   3.778   8.711 -0.1358 -0.0938 -0.2290
12557SOL    HW139112   6.233   3.743   8.798 -0.0554  0.5358  0.0388
12557SOL    HW239113   6.170   3.823   8.687  0.1479  0.4723 -0.1228
12558SOL     OW39114   0.560   1.195   1.373 -0.0446  0.0914 -0.1661
12558SOL    HW139115   0.507   1.273   1.355 -0.6406 -0.4917 -1.0390
12558SOL    HW239116   0.649   1.220   1.349 -0.5331 -0.0769 -2.3012
12559SOL     OW39117   6.340   0.185   2.314  0.0023 -0.5994 -0.3075
12559SOL    HW139118   6.385   0.223   2.238  0.9548  1.8441  1.3315
12559SOL    HW239119   6.247   0.198   2.295  0.2288  4.1119  0.6560
12560SOL     OW39120   7.904   7.162   0.271  0.8534  0.0417 -0.6787
12560SOL    HW139121   7.978   7.152   0.211  1.6583 -0.5337  0.3809
12560SOL    HW239122   7.920   7.245   0.316  0.6410  0.1116 -0.7278
12561SOL     OW39123   4.828   5.328   3.374  0.4021  0.2065  0.4684
12561SOL    HW139124   4.916   5.362   3.360 -0.2287  1.0202 -2.1140
12561SOL    HW239125   4.841   5.234   3.388  1.7887  0.6307  2.3148
12562SOL     OW39126   4.660   3.942   4.123  0.4212 -0.2385 -0.1559
12562SOL    HW139127   4.615   4.011   4.074  0.6156  1.1137  1.4822
12562SOL    HW239128   4.600   3.922   4.195  0.1118 -2.2375 -0.9149
12563SOL     OW39129   3.678   6.763   8.921  0.4510  0.3515 -0.0239
12563SOL    HW139130   3.601   6.707   8.938  0.2926  0.8810  1.1121
12563SOL    HW239131   3.753   6.706   8.938  0.3711 -0.4073 -1.9010
12564SOL     OW39132   1.280   0.602   9.223  0.3322 -0.3213  0.2289
12564SOL    HW139133   1.325   0.545   9.161  1.5120  0.7736  0.0455
12564SOL    HW239134   1.232   0.665   9.169  0.5222 -0.0053  0.4239
12565SOL     OW39135   4.108   5.794  12.265 -0.2438 -0.1706 -0.3238
12565SOL    HW139136   4.119   5.789  12.360  2.8921  1.2851 -0.4952
12565SOL    HW239137   4.045   5.865  12.252 -3.0747 -2.2941  0.5927
12566SOL     OW39138   3.852   4.684   1.405  0.1248  0.2047  0.3099
12566SOL    HW139139   3.942   4.681   1.373 -0.4420  0.4095 -1.3858
12566SOL    HW239140   3.807   4.615   1.357 -0.9769  1.1475 -0.0540
12567SOL     OW39141   4.473   1.809   1.227  0.5574 -0.5026  0.3231
12567SOL    HW139142   4.524   1.794   1.147  0.0122  2.3374 -0.6669
12567SOL    HW239143   4.539   1.825   1.295  1.0116 -0.3955 -0.1369
12568SOL     OW39144   4.614   2.387  12.158 -0.0546  0.4270 -0.0620
12568SOL    HW139145   4.544   2.425  12.211 -0.7002  0.9550 -1.2717
12568SOL    HW239146   4.693   2.432  12.187 -0.8161  2.9486 -1.5960
12569SOL     OW39147   5.635   7.265   8.345  0.3672 -0.2523 -0.1420
12569SOL    HW139148   5.651   7.332   8.412 -0.9904 -0.2965  0.2472
12569SOL    HW239149   5.540   7.263   8.335  0.5625  0.1883 -2.5436
12570SOL     OW39150   6.577   2.958   1.722 -0.3612 -0.0535  0.3856
12570SOL    HW139151   6.498   3.001   1.689 -0.3523  0.1714  0.6543
12570SOL    HW239152   6.640   3.028   1.734 -0.7487  0.0617  2.0117
12571SOL     OW39153   5.211   2.968   6.324  0.3603 -0.3852 -0.0934
12571SOL    HW139154   5.140   3.004   6.377  0.2969 -0.3531 -0.1984
12571SOL    HW239155   5.171   2.896   6.276  0.1199  0.3020 -0.9625
12572SOL     OW39156   3.483   7.200  10.287  0.1176 -0.6913  0.2690
12572SOL    HW139157   3.569   7.240  10.302 -0.3488  0.5860 -0.2618
12572SOL    HW239158   3.442   7.199  10.374 -0.8396  2.4764  0.0098
12573SOL     OW39159   4.587   1.771   5.404  0.1271  0.0942 -0.2172
12573SOL    HW139160   4.505   1.814   5.380  0.2063  1.4786  1.7118
12573SOL    HW239161   4.654   1.839   5.394  0.9031 -0.7284 -0.8073
12574SOL     OW39162   2.695   4.537   7.285 -0.2619 -0.3291  0.7263
12574SOL    HW139163   2.732   4.495   7.362  1.1317  0.6663  0.6265
12574SOL    HW239164   2.635   4.603   7.320 -0.8816 -0.9829  0.9141
12575SOL     OW39165   5.021   5.929   9.928 -0.4571 -0.4403  0.0470
12575SOL    HW139166   5.081   5.962   9.995  1.5122 -0.7412 -1.4426
12575SOL    HW239167   4.943   5.983   9.936  0.6129  1.0328  1.1046
12576SOL     OW39168   6.604   6.739   9.373 -0.6137  0.0644 -0.2386
12576SOL    HW139169   6.647   6.734   9.458 -0.6558  0.5398 -0.1884
12576SOL    HW239170   6.610   6.831   9.348 -0.3790 -0.1161 -0.8655
12577SOL     OW39171   6.122   1.757   2.902  0.1579 -0.1434  0.1056
12577SOL    HW139172   6.120   1.852   2.911 -1.4542  0.0803 -1.7579
12577SOL    HW239173   6.048   1.726   2.955 -0.8058 -0.0789 -1.1355
12578SOL     OW39174   6.039   7.196   9.384  0.5998 -0.1576  0.0767
12578SOL    HW139175   6.126   7.181   9.349  0.2607 -1.2287 -0.3319
12578SOL    HW239176   5.997   7.255   9.321  0.6103 -0.6254 -0.3652
12579SOL     OW39177   0.030   1.995   9.664  0.4331  0.1688 -0.0411
12579SOL    HW139178   0.044   2.030   9.752 -1.4682  0.4845  0.1688
12579SOL    HW239179   0.093   2.042   9.610  0.3874  1.3044  0.8556
12580SOL     OW39180   1.996   4.268  11.170  0.2251  0.7109  0.1305
12580SOL    HW139181   1.953   4.285  11.254 -1.4618  0.6527 -0.6794
12580SOL    HW239182   2.082   4.235  11.194 -1.4054 -2.7120  1.9674
12581SOL     OW39183   2.790   4.951   8.050 -0.5100 -0.7500 -0.3639
12581SOL    HW139184   2.798   4.858   8.031 -0.8757 -1.4006  2.3147
12581SOL    HW239185   2.700   4.962   8.080 -0.5227  0.5257 -0.7991
12582SOL     OW39186   0.489   7.893   2.951  0.7701  0.0586  0.3246
12582SOL    HW139187   0.573   7.930   2.977  0.4639 -0.4664  2.1587
12582SOL    HW239188   0.479   7.814   3.005 -1.0358  0.2821  0.3717
12583SOL     OW39189   6.043   4.592   3.999  0.0048 -0.2359  0.4201
12583SOL    HW139190   6.040   4.637   3.915  1.3552  1.6411  1.2942
12583SOL    HW239191   6.128   4.548   3.999 -0.2312 -0.6904  0.5750
12584SOL     OW39192   3.038   2.951   2.995  0.3961 -0.3118 -0.2381
12584SOL    HW139193   3.112   2.911   2.949  0.4600 -1.6659  0.9850
12584SOL    HW239194   3.057   2.938   3.088 -0.5301  0.9055  0.1463
12585SOL     OW39195   1.869   4.958   0.391  0.2662 -0.1549  0.2629
12585SOL    HW139196   1.847   4.879   0.342  0.5594 -0.6233  0.8837
12585SOL    HW239197   1.902   4.927   0.474  0.8692  0.6113  0.3204
12586SOL     OW39198   3.172   5.176   9.075  0.2418 -0.3231 -0.4420
12586SOL    HW139199   3.156   5.092   9.032 -0.9871 -1.2921  1.7430
12586SOL    HW239200   3.142   5.241   9.012 -0.8903 -1.6376 -1.3267
12587SOL     OW39201   2.835   3.995  12.195  0.1705 -0.6265  0.0348
12587SOL    HW139202   2.900   3.949  12.249 -0.1534 -0.6817  0.3837
12587SOL    HW239203   2.867   4.085  12.191 -0.9234 -0.0723  2.1950
12588SOL     OW39204   3.391   7.856   0.614  0.5268 -0.5205  0.5622
12588SOL    HW139205   3.385   7.802   0.535  1.3712 -2.3691  1.7003
12588SOL    HW239206   3.462   7.817   0.665 -0.4491  0.1683  2.5657
12589SOL     OW39207   2.544   2.939  10.711  0.1285  0.6390 -0.2587
12589SOL    HW139208   2.453   2.947  10.742  0.1989 -1.5590  0.7015
12589SOL    HW239209   2.573   2.853  10.744  2.4837  1.1810 -0.7542
12590SOL     OW39210   3.365   1.047   4.135 -0.9473 -0.2944 -0.0968
12590SOL    HW139211   3.321   0.965   4.110 -1.2629 -0.4649  0.9439
12590SOL    HW239212   3.459   1.026   4.131 -1.0376 -0.9439  0.8587
12591SOL     OW39213   3.496   5.414   9.901  0.3569  0.1496 -0.4252
12591SOL    HW139214   3.544   5.397   9.820  1.9319 -1.4249  0.7652
12591SOL    HW239215   3.414   5.366   9.891  0.4866  0.0618 -1.1158
12592SOL     OW39216   7.126   7.793  10.374  0.1352  0.2678 -0.0368
12592SOL    HW139217   7.042   7.748  10.365 -0.1372  0.8562 -0.5157
12592SOL    HW239218   7.157   7.805  10.285 -0.2174  1.7755  0.0119
12593SOL     OW39219   5.624   4.743  11.270 -0.3068 -0.0834  0.2744
12593SOL    HW139220   5.632   4.654  11.304 -0.1579 -0.2858 -0.2725
12593SOL    HW239221   5.630   4.732  11.175 -1.4681  0.3860  0.1320
12594SOL     OW39222   3.749   6.814   6.083  0.3221 -0.5589 -0.1229
12594SOL    HW139223   3.728   6.848   5.996 -0.1835 -1.4471 -0.3495
12594SOL    HW239224   3.675   6.841   6.138  0.8493  0.3924  0.1557
12595SOL     OW39225   0.580   6.144  11.127 -0.3880  0.4998 -0.0297
12595SOL    HW139226   0.654   6.180  11.079  0.1396 -2.0267 -1.2906
12595SOL    HW239227   0.620   6.089  11.194 -1.1204  0.0737  0.0688
12596SOL     OW39228   3.342   6.885   5.102 -0.5148 -0.0239  0.6149
12596SOL    HW139229   3.250   6.883   5.131 -0.5608 -1.9423  0.4417
12596SOL    HW239230   3.338   6.916   5.012 -1.1279 -1.0510  0.2675
12597SOL     OW39231   7.796   6.590   8.540  0.2864 -0.6720  0.1501
12597SOL    HW139232   7.761   6.545   8.617  1.5510 -0.9214  0.6021
12597SOL    HW239233   7.824   6.676   8.573 -0.1917 -0.3479 -0.2753
12598SOL     OW39234   1.431   3.639   7.320  0.8829  0.1130  0.6041
12598SOL    HW139235   1.417   3.646   7.225 -1.1932 -0.9685  0.7825
12598SOL    HW239236   1.443   3.729   7.349  0.4571  0.5568 -0.5340
12599SOL     OW39237   4.507   6.854  11.058  0.3499  0.2410  0.4160
12599SOL    HW139238   4.502   6.949  11.053  0.2755  0.2109 -0.1732
12599SOL    HW239239   4.468   6.823  10.976 -1.1979 -0.3534  1.3329
12600SOL     OW39240   5.342   6.441   3.095  0.2001 -0.3062  0.2426
12600SOL    HW139241   5.385   6.426   3.011 -0.6520 -2.4861  0.1181
12600SOL    HW239242   5.301   6.527   3.086 -0.9985 -1.0207 -2.1134
12601SOL     OW39243   1.473   1.004   4.212  0.0240  0.0803 -0.2842
12601SOL    HW139244   1.457   0.910   4.202 -0.2228  0.1905 -0.9769
12601SOL    HW239245   1.532   1.026   4.140  0.2335  0.4249 -0.0118
12602SOL     OW39246   4.284   0.444   3.235 -0.4616  0.0073  0.1321
12602SOL    HW139247   4.208   0.499   3.255 -0.2145 -0.0563  1.2898
12602SOL    HW239248   4.355   0.481   3.287 -0.3288 -1.4959  1.0706
12603SOL     OW39249   1.281   6.402   0.378 -0.2426  0.3185 -0.2182
12603SOL    HW139250   1.194   6.435   0.356  0.0708  0.4723 -1.2757
12603SOL    HW239251   1.336   6.480   0.381  0.2090  0.0589 -1.3008
12604SOL     OW39252   1.338   3.805   2.467 -0.7276 -0.0577  0.2896
12604SOL    HW139253   1.277   3.800   2.540 -2.6869  3.6959 -0.8604
12604SOL    HW239254   1.342   3.898   2.444  1.7896 -0.7242 -2.7642
12605SOL     OW39255   5.886   7.855   1.762 -0.1644  0.3514  0.5863
12605SOL    HW139256   5.920   7.767   1.743  0.0794  0.2634  1.3692
12605SOL    HW239257   5.959   7.899   1.805 -0.7137  0.4890  1.4042
12606SOL     OW39258   7.840   6.485  12.256 -0.3012 -0.4254  0.2562
12606SOL    HW139259   7.803   6.435  12.183  1.2171  2.3638 -2.6435
12606SOL    HW239260   7.895   6.423  12.303 -0.2977 -2.0483 -1.7772
12607SOL     OW39261   6.823   3.133   3.661 -0.3547  0.0914 -0.2877
12607SOL    HW139262   6.787   3.059   3.611  1.6940 -0.8606 -0.4539
12607SOL    HW239263   6.914   3.140   3.631 -0.2955  2.2465  0.2581
12608SOL     OW39264   5.209   5.500   0.848 -0.4909  0.6307 -0.4809
12608SOL    HW139265   5.119   5.524   0.828 -0.8529 -1.5334 -1.7748
12608SOL    HW239266   5.202   5.444   0.925 -0.3955 -0.3185 -1.1454
12609SOL     OW39267   0.856   1.111   4.585 -0.0413 -0.5021 -0.3085
12609SOL    HW139268   0.905   1.171   4.529  2.2437 -0.4703  1.5886
12609SOL    HW239269   0.781   1.163   4.616  0.8211  0.7372 -0.2369
12610SOL     OW39270   5.404   5.004  11.647 -0.0722 -0.2427  0.0127
12610SOL    HW139271   5.452   4.964  11.575 -0.2415  1.0310 -0.8425
12610SOL    HW239272   5.333   4.942  11.666 -0.5957 -0.1726 -1.5718
12611SOL     OW39273   4.546   6.361  12.012  0.5032 -0.6924  0.2294
12611SOL    HW139274   4.481   6.334  12.076  1.1300 -0.4213  1.0077
12611SOL    HW239275   4.496   6.406  11.943 -0.3046 -2.0229 -0.0735
12612SOL     OW39276   7.382   1.874  10.457  0.0328 -0.5899  0.9483
12612SOL    HW139277   7.328   1.833  10.389  1.3233 -1.0721  0.1689
12612SOL    HW239278   7.340   1.958  10.474 -1.0465 -1.0187  0.5022
12613SOL     OW39279   3.734   4.644   5.514  0.2540 -0.2160 -0.5114
12613SOL    HW139280   3.745   4.586   5.589 -1.3557  0.1883  0.0739
12613SOL    HW239281   3.712   4.585   5.441  2.3923 -0.6656 -0.8567
12614SOL     OW39282   6.752   5.926   2.536  0.0517  0.6197  0.6813
12614SOL    HW139283   6.729   5.940   2.445 -0.9937  2.5677  1.1887
12614SOL    HW239284   6.805   5.845   2.536 -0.5399  0.1803 -1.5079
12615SOL     OW39285   5.220   0.961   6.912  0.4373  0.7403  0.3784
12615SOL    HW139286   5.166   1.023   6.960 -0.8446 -0.5859  0.7126
12615SOL    HW239287   5.275   0.920   6.979  0.3648  0.5990  0.3516
12616SOL     OW39288   5.152   0.854   7.503  0.1521 -0.4820 -1.0634
12616SOL    HW139289   5.125   0.828   7.591 -3.3301  1.1392 -1.4718
12616SOL    HW239290   5.224   0.795   7.481  1.8993 -0.3018  3.1803
12617SOL     OW39291   3.793   6.017   7.526  0.1374  0.0144 -0.2271
12617SOL    HW139292   3.791   5.921   7.529  2.4079 -0.0704 -0.0646
12617SOL    HW239293   3.853   6.038   7.454 -0.1403  1.3187 -0.1028
12618SOL     OW39294   3.167   4.817   4.539 -0.1949 -0.3901  0.0217
12618SOL    HW139295   3.244   4.777   4.581  0.1210  0.1467 -0.0290
12618SOL    HW239296   3.203   4.864   4.464 -0.5626 -0.0562  0.0533
12619SOL     OW39297   6.686   6.356   0.903 -0.1541 -0.1028  0.0423
12619SOL    HW139298   6.769   6.367   0.857 -0.8135  1.5104 -0.8383
12619SOL    HW239299   6.710   6.312   0.985  1.3527 -0.9908 -0.8151
12620SOL     OW39300   7.319   1.487  10.701  0.6104  0.2180 -0.1025
12620SOL    HW139301   7.330   1.465  10.793  1.4356 -1.4208 -0.5597
12620SOL    HW239302   7.266   1.416  10.665  1.1183  0.3211 -1.0990
12621SOL     OW39303   4.865   3.607   5.206  0.2792 -0.0785  0.3381
12621SOL    HW139304   4.911   3.671   5.151 -0.9378  0.5269 -0.0067
12621SOL    HW239305   4.928   3.536   5.217  1.3901  0.8230  0.0853
12622SOL     OW39306   6.437   4.024  11.495  0.4419 -0.1594 -0.2031
12622SOL    HW139307   6.496   4.085  11.450 -1.5571  0.2144 -2.4928
12622SOL    HW239308   6.456   3.939  11.455 -0.4868 -0.0437 -0.9194
12623SOL     OW39309   2.180   5.848   0.140  0.2748  0.0833  0.0502
12623SOL    HW139310   2.137   5.932   0.155 -1.8710 -1.0510  0.5586
12623SOL    HW239311   2.110   5.788   0.115  1.8137 -1.4768 -0.8005
12624SOL     OW39312   3.244   4.745   5.766  0.5580 -0.4579 -0.2464
12624SOL    HW139313   3.278   4.833   5.748  1.6201 -0.6480  0.7186
12624SOL    HW239314   3.170   4.735   5.706  1.7802  0.2488 -1.9696
12625SOL     OW39315   1.989   3.867   2.087 -0.3581  0.0834  0.0327
12625SOL    HW139316   2.036   3.850   2.006  0.0860  1.6943 -0.0742
12625SOL    HW239317   2.057   3.869   2.155 -0.5998 -0.1809  0.2897
12626SOL     OW39318   7.597   4.832   8.196 -0.4293  0.7672 -0.4910
12626SOL    HW139319   7.528   4.866   8.254 -0.0637 -1.0257  1.0949
12626SOL    HW239320   7.677   4.873   8.228 -0.4786  1.3579 -1.0942
12627SOL     OW39321   3.493   7.495   4.159 -0.1376  0.6024 -0.3460
12627SOL    HW139322   3.568   7.553   4.147 -0.8965  2.0791  1.5802
12627SOL    HW239323   3.425   7.551   4.196 -1.0594 -1.4167  1.1907
12628SOL     OW39324   3.110   3.707   5.965 -0.1243 -0.5686  0.4537
12628SOL    HW139325   3.179   3.682   6.026  0.9879  0.5481 -0.2891
12628SOL    HW239326   3.046   3.755   6.018  1.7826  2.1195  0.5019
12629SOL     OW39327   4.514   4.996  11.723 -0.2043  0.0388 -0.5569
12629SOL    HW139328   4.550   4.916  11.684 -0.0350 -0.2096  0.1007
12629SOL    HW239329   4.434   4.968  11.766  1.5139 -0.5171  2.6124
12630SOL     OW39330   5.983   6.926   2.824  0.4482  0.4312  0.1509
12630SOL    HW139331   5.931   6.932   2.744  0.8209  0.5352 -0.0845
12630SOL    HW239332   5.948   6.996   2.880 -0.4289 -0.2180  0.4472
12631SOL     OW39333   7.355   0.170  11.187 -0.2327  0.0603 -0.3676
12631SOL    HW139334   7.347   0.238  11.121  1.4133  0.7355  0.0831
12631SOL    HW239335   7.361   0.216  11.270 -0.2326 -0.6806  0.0595
12632SOL     OW39336   0.925   1.850   6.327 -0.4519 -0.3629  0.0487
12632SOL    HW139337   0.954   1.915   6.263  1.1721  0.7135  1.7925
12632SOL    HW239338   0.993   1.782   6.326 -0.5856 -0.5049  0.3976
12633SOL     OW39339   5.892   4.911   5.127 -0.1812 -0.0065  0.0794
12633SOL    HW139340   5.987   4.913   5.115 -0.1460  1.8827  0.3879
12633SOL    HW239341   5.879   4.878   5.216  0.3042  1.6740  0.8023
12634SOL     OW39342   2.645   0.314   9.108  0.2064 -0.3260  0.3578
12634SOL    HW139343   2.667   0.391   9.055  1.4113 -0.2721  0.9064
12634SOL    HW239344   2.714   0.251   9.087 -1.0168 -1.4524 -0.4349
12635SOL     OW39345   4.160   0.741   6.862 -0.2786 -0.0740 -0.1722
12635SOL    HW139346   4.146   0.823   6.910  0.3686  0.2192 -0.4607
12635SOL    HW239347   4.254   0.725   6.869 -0.6785 -2.0571  1.8728
12636SOL     OW39348   2.618   3.539  11.203 -0.0283 -0.6454 -0.5312
12636SOL    HW139349   2.709   3.566  11.209  0.1955 -1.5761  0.8381
12636SOL    HW239350   2.621   3.452  11.163 -0.1385 -1.3872  0.9993
12637SOL     OW39351   1.269   5.499   6.585 -1.0210  0.1791  0.0061
12637SOL    HW139352   1.223   5.563   6.640  0.5272  0.9928  0.4141
12637SOL    HW239353   1.214   5.490   6.507 -1.8005  1.2050  0.4171
12638SOL     OW39354   0.993   2.998  11.958  0.1481 -0.3555 -0.2631
12638SOL    HW139355   0.976   3.041  11.874 -0.8807 -0.4339 -0.1078
12638SOL    HW239356   1.003   3.070  12.020 -0.8351 -0.3068 -0.1419
12639SOL     OW39357   0.453   4.904  10.113  0.0611  0.2298  0.2120
12639SOL    HW139358   0.483   4.958  10.186  1.0284  0.1676 -0.1313
12639SOL    HW239359   0.431   4.966  10.044 -0.3672  0.2586  0.3676
12640SOL     OW39360   1.329   0.144   9.299  0.4934 -0.0937 -0.5715
12640SOL    HW139361   1.388   0.069   9.307 -0.0297 -0.3930  0.8391
12640SOL    HW239362   1.258   0.125   9.359 -1.3184  0.0512 -2.5641
12641SOL     OW39363   5.212   0.653   9.667  0.0029 -0.3688 -0.1932
12641SOL    HW139364   5.236   0.673   9.577 -1.0854  0.6740 -0.2640
12641SOL    HW239365   5.120   0.677   9.674  0.1302 -0.2045  1.2646
12642SOL     OW39366   2.337   7.642   2.573 -0.3969  0.0052  1.2686
12642SOL    HW139367   2.269   7.660   2.508  1.1901  2.1883  0.1265
12642SOL    HW239368   2.397   7.582   2.529 -1.0351 -1.1929  1.9634
12643SOL     OW39369   0.394   4.502   9.723  0.2650  0.5468  0.4161
12643SOL    HW139370   0.486   4.521   9.703 -0.3157  1.2660 -1.8157
12643SOL    HW239371   0.369   4.572   9.784  0.6828  1.5551 -0.5262
12644SOL     OW39372   7.129   3.053   4.149  0.0127 -0.3119 -0.0144
12644SOL    HW139373   7.204   3.102   4.114  0.6639 -1.5164 -0.3526
12644SOL    HW239374   7.072   3.039   4.073 -0.4152  0.3302  0.1809
12645SOL     OW39375   6.088   4.873  10.395 -0.7820 -0.3178  0.2024
12645SOL    HW139376   6.118   4.782  10.408 -0.7729 -0.3625 -0.1109
12645SOL    HW239377   5.993   4.866  10.387 -0.9398 -0.1251  1.6349
12646SOL     OW39378   3.394   6.212   2.816  0.4596 -0.0889  0.1795
12646SOL    HW139379   3.367   6.266   2.890  1.6152  0.1054  0.4723
12646SOL    HW239380   3.442   6.139   2.855 -0.5714 -1.0334 -0.2559
12647SOL     OW39381   5.956   6.132   4.382 -0.2298 -0.2964  0.2006
12647SOL    HW139382   6.011   6.151   4.458 -0.0011  3.1183 -0.6659
12647SOL    HW239383   6.016   6.093   4.319  0.6330  0.8770  0.2495
12648SOL     OW39384   0.130   1.222   3.466 -0.2954 -0.3576 -0.1842
12648SOL    HW139385   0.118   1.316   3.473 -0.2541 -0.4490  1.8202
12648SOL    HW239386   0.139   1.192   3.557 -1.1962 -2.3996 -0.6916
12649SOL     OW39387   5.128   7.963   9.396  0.0127 -0.3431  0.2331
12649SOL    HW139388   5.155   8.053   9.376 -0.3973 -0.6596 -2.0022
12649SOL    HW239389   5.189   7.935   9.465  0.9150  1.2246  0.1409
12650SOL     OW39390   4.833   6.182   3.479 -0.2281  0.3052 -0.2203
12650SOL    HW139391   4.786   6.223   3.552  1.0730  0.6835  0.4485
12650SOL    HW239392   4.816   6.089   3.489 -1.8155  0.5194 -0.7267
12651SOL     OW39393   7.478   0.697   7.224 -0.1050 -0.7442 -0.0379
12651SOL    HW139394   7.499   0.680   7.132  1.5714  1.0034 -0.0423
12651SOL    HW239395   7.535   0.638   7.273 -0.4993 -1.1750 -0.0813
12652SOL     OW39396   7.601   2.875   7.800 -0.0818 -0.2715  0.0458
12652SOL    HW139397   7.511   2.868   7.832  0.2299 -0.4586  0.9004
12652SOL    HW239398   7.632   2.958   7.836 -1.0599  1.6799 -3.2159
12653SOL     OW39399   2.692   0.282   4.630  0.0383 -0.1274  0.1110
12653SOL    HW139400   2.745   0.349   4.587 -1.1407  1.6700  1.3195
12653SOL    HW239401   2.614   0.274   4.574 -0.4220  0.5051  0.6421
12654SOL     OW39402   1.658   5.892   3.828  0.4969 -0.4401  0.3202
12654SOL    HW139403   1.568   5.921   3.811 -0.0340 -2.2280 -0.1088
12654SOL    HW239404   1.667   5.895   3.923 -0.2129 -0.7962  0.4025
12655SOL     OW39405   7.033   2.533   5.484  0.3359  0.6942  0.1180
12655SOL    HW139406   7.075   2.518   5.399 -1.7500  1.4702 -1.1438
12655SOL    HW239407   7.101   2.571   5.538  1.9539 -0.5956 -0.9261
12656SOL     OW39408   6.020   3.416   4.926  0.1379 -0.1227 -0.1977
12656SOL    HW139409   6.056   3.329   4.906 -1.6041 -0.2678 -3.3221
12656SOL    HW239410   5.926   3.403   4.928 -0.0879  1.4595  0.7404
12657SOL     OW39411   0.010   2.726   6.558 -0.5894 -0.3445 -0.7403
12657SOL    HW139412  -0.066   2.775   6.592 -0.0824 -0.4117  0.5418
12657SOL    HW239413   0.072   2.725   6.630  1.3875  1.1936 -2.3099
12658SOL     OW39414   6.277   1.828   5.046  0.0460 -1.0093  0.5261
12658SOL    HW139415   6.321   1.907   5.078  1.9615 -1.9167  0.2630
12658SOL    HW239416   6.225   1.858   4.972  0.8050  0.0017  0.3842
12659SOL     OW39417   1.490   3.798   8.523  0.1048 -0.3172 -0.0843
12659SOL    HW139418   1.573   3.823   8.484 -0.2284 -1.1126 -1.3271
12659SOL    HW239419   1.512   3.731   8.587  0.2867 -1.5772 -1.4305
12660SOL     OW39420   2.728   2.096  10.449 -0.1094 -0.0247 -0.3140
12660SOL    HW139421   2.771   2.176  10.420 -1.7328  1.2690  0.6516
12660SOL    HW239422   2.702   2.052  10.368 -0.2951  1.0666 -0.8609
12661SOL     OW39423   7.305   6.229   6.872  0.6484  0.3241 -0.1976
12661SOL    HW139424   7.284   6.228   6.965  0.6605  1.5306 -0.1761
12661SOL    HW239425   7.399   6.211   6.868  1.0319  2.1002  0.1538
12662SOL     OW39426   2.294   7.199   5.352 -0.1018  0.2435 -0.6563
12662SOL    HW139427   2.334   7.238   5.274  1.2345 -1.9346 -1.1710
12662SOL    HW239428   2.246   7.123   5.319  0.4554 -0.7042  0.6000
12663SOL     OW39429   4.794   3.197   5.769  0.0023 -0.1047  0.0937
12663SOL    HW139430   4.797   3.271   5.830  1.0768  0.0484 -0.1292
12663SOL    HW239431   4.758   3.233   5.689 -1.8710 -0.4110  0.7491
12664SOL     OW39432   5.003   0.994   8.869 -0.2003  0.0557 -0.3067
12664SOL    HW139433   5.065   0.926   8.894 -0.6311 -0.0807  0.4220
12664SOL    HW239434   5.041   1.075   8.903 -0.4050 -0.0263  0.1290
12665SOL     OW39435   7.025   5.425   3.827 -0.3136 -0.0666  0.0961
12665SOL    HW139436   7.076   5.497   3.793  0.4448  0.2852  1.8693
12665SOL    HW239437   7.062   5.408   3.914 -0.3436 -2.7042 -0.3227
12666SOL     OW39438   0.501   3.577   8.242 -0.1335 -0.6205 -0.2913
12666SOL    HW139439   0.576   3.545   8.293 -0.1509 -0.7482 -0.3452
12666SOL    HW239440   0.475   3.502   8.188  0.1900 -0.3318 -0.8516
12667SOL     OW39441   4.911   1.013   5.901  0.1033  0.0837 -0.3225
12667SOL    HW139442   4.892   0.988   5.810 -3.2338 -1.2702  0.5982
12667SOL    HW239443   4.864   1.096   5.913  0.6790  0.3461  0.1261
12668SOL     OW39444   1.989   5.175   6.971 -0.1917  0.3232 -0.2797
12668SOL    HW139445   1.937   5.246   7.010  0.7432  0.7832  0.1507
12668SOL    HW239446   2.040   5.217   6.902  1.6934  0.4612  1.1240
12669SOL     OW39447   3.518   4.135   8.583  0.4367  0.0305  0.3589
12669SOL    HW139448   3.427   4.112   8.565 -0.0805  0.1272  2.5229
12669SOL    HW239449   3.512   4.210   8.642  1.9974  1.9864 -1.8152
12670SOL     OW39450   3.165   1.810   6.718 -0.2919 -0.6617 -0.2539
12670SOL    HW139451   3.222   1.765   6.780 -3.5171 -1.1313  2.6438
12670SOL    HW239452   3.105   1.742   6.687 -1.7260  0.4941 -0.1370
12671SOL     OW39453   0.487   7.629  12.424  0.3218  0.5685  0.2265
12671SOL    HW139454   0.396   7.649  12.401 -0.7737 -0.9980  2.7828
12671SOL    HW239455   0.516   7.704  12.476 -0.8535 -0.4787  2.5321
12672SOL     OW39456   0.345   4.481   4.767  0.5561  0.1163 -0.5026
12672SOL    HW139457   0.329   4.540   4.693  0.1261 -1.2472 -1.5459
12672SOL    HW239458   0.421   4.429   4.740  0.0334 -0.7945 -0.2556
12673SOL     OW39459   0.783   6.910  10.333  0.4575 -0.4103  0.7713
12673SOL    HW139460   0.741   6.967  10.397  0.2799 -0.8335  1.0344
12673SOL    HW239461   0.822   6.970  10.269 -0.3550 -0.0119  0.6445
12674SOL     OW39462   5.369   7.611   1.776  0.2775 -0.0978 -0.0656
12674SOL    HW139463   5.417   7.551   1.833  0.4395  1.5574  1.6326
12674SOL    HW239464   5.408   7.599   1.690  2.7729  0.1330  0.9639
12675SOL     OW39465   3.852   5.899   3.936  0.5715  0.1525  0.0650
12675SOL    HW139466   3.805   5.975   3.902 -2.0408 -1.6229 -0.6172
12675SOL    HW239467   3.867   5.843   3.860  1.7980 -0.3690  0.6579
12676SOL     OW39468   6.015   2.089   8.737 -0.3197  0.1786  0.7273
12676SOL    HW139469   5.965   2.017   8.776 -0.1509 -0.5129 -0.3029
12676SOL    HW239470   6.063   2.126   8.811  1.2464 -2.1155  0.9634
12677SOL     OW39471   4.178   2.996   9.791 -0.0299  0.0268 -0.3785
12677SOL    HW139472   4.178   3.083   9.751  0.7696 -0.3579 -1.2384
12677SOL    HW239473   4.089   2.985   9.825  0.4576  2.1385  1.9180
12678SOL     OW39474   7.106   2.933   0.884  0.9571  0.3847  0.0397
12678SOL    HW139475   7.167   3.005   0.896  0.5780  0.4417  1.9967
12678SOL    HW239476   7.041   2.966   0.822  0.6800  1.8229  1.0522
12679SOL     OW39477   5.137   5.191   7.875  0.3497 -0.6931  0.4941
12679SOL    HW139478   5.184   5.140   7.941 -2.3538 -2.7327  1.0618
12679SOL    HW239479   5.054   5.145   7.865 -0.4161  1.0647 -2.4561
12680SOL     OW39480   7.777   6.386   2.403  0.2783  0.0434 -0.3027
12680SOL    HW139481   7.780   6.302   2.359  0.4807 -0.8141  1.2882
12680SOL    HW239482   7.857   6.430   2.376  0.2550 -0.3289 -1.0059
12681SOL     OW39483   3.504   4.104   1.783  0.3873  0.2644 -0.3545
12681SOL    HW139484   3.525   4.112   1.876 -1.2224  3.8359 -0.1527
12681SOL    HW239485   3.587   4.118   1.738  0.7055  1.3819  0.5451
12682SOL     OW39486   3.523   6.242   2.529  0.2562  0.3576  0.2868
12682SOL    HW139487   3.476   6.182   2.472  0.2225 -0.3549  1.0496
12682SOL    HW239488   3.511   6.206   2.617  1.3025  0.7785  0.6152
12683SOL     OW39489   2.346   0.424   8.490 -0.5025  0.4480  0.7620
12683SOL    HW139490   2.331   0.329   8.489  1.2386  0.1311  0.6488
12683SOL    HW239491   2.273   0.459   8.541 -1.5010 -0.8869  0.3115
12684SOL     OW39492   1.713   3.958   0.630 -0.0601 -0.2509 -0.1848
12684SOL    HW139493   1.627   3.995   0.609  0.9127  1.4020 -1.5784
12684SOL    HW239494   1.733   3.900   0.556 -0.3809 -1.4362  0.6353
12685SOL     OW39495   0.593   7.683   0.660 -0.5167  0.2579 -0.3959
12685SOL    HW139496   0.620   7.742   0.730 -1.2937  0.8293 -0.5698
12685SOL    HW239497   0.622   7.727   0.579  2.2132 -1.3274 -0.4174
12686SOL     OW39498   6.805   3.166   6.156  0.4740 -0.1792 -0.1442
12686SOL    HW139499   6.836   3.254   6.133  0.4849  0.0028  0.5489
12686SOL    HW239500   6.874   3.129   6.210  0.3354 -0.5052 -0.1887
12687SOL     OW39501   1.825   3.794   8.175 -0.3122  0.1635  0.5224
12687SOL    HW139502   1.867   3.808   8.091 -0.5123 -0.0991  0.3743
12687SOL    HW239503   1.782   3.877   8.195 -0.5142  0.1354  0.2203
12688SOL     OW39504   5.016   1.151  10.037  0.3230  0.0012 -0.6645
12688SOL    HW139505   5.011   1.246  10.032  0.0834 -0.0661 -2.1948
12688SOL    HW239506   5.054   1.124   9.954  2.2619 -1.1417  0.5104
12689SOL     OW39507   6.763   7.399   5.540  0.2869  0.4515 -0.0424
12689SOL    HW139508   6.848   7.418   5.499  1.3510  0.4621  2.0384
12689SOL    HW239509   6.767   7.305   5.559 -1.2278 -0.1175 -2.0882
12690SOL     OW39510   7.429   5.597   0.012 -0.1319  0.0625  0.1779
12690SOL    HW139511   7.459   5.531   0.074 -3.5620 -1.1668  0.7449
12690SOL    HW239512   7.509   5.641  -0.017  1.8739 -1.1136  3.3872
12691SOL     OW39513   3.668   5.898   8.049 -0.3700 -0.3229 -0.5242
12691SOL    HW139514   3.707   5.814   8.025  0.7223 -0.1052  0.3868
12691SOL    HW239515   3.627   5.930   7.969  1.1851 -0.6593 -1.4807
12692SOL     OW39516   2.777   0.996   6.344 -0.3382 -0.2063 -0.1665
12692SOL    HW139517   2.776   1.060   6.272 -1.0047  0.3639  0.3338
12692SOL    HW239518   2.869   0.981   6.361 -0.1281  1.6104  0.5570
12693SOL     OW39519   3.845   4.921   1.529 -0.1252  0.4327  0.0768
12693SOL    HW139520   3.804   4.838   1.504 -1.5861  0.8246  1.0250
12693SOL    HW239521   3.917   4.897   1.587 -0.5037 -0.1702  0.2960
12694SOL     OW39522   5.297   0.877  10.227  0.2381 -0.2203 -0.5448
12694SOL    HW139523   5.323   0.876  10.319  1.9571 -0.5687 -0.9872
12694SOL    HW239524   5.363   0.823  10.183 -0.5344 -0.0501 -1.9796
12695SOL     OW39525   1.664   3.535   4.116 -0.0274 -0.4591 -0.1060
12695SOL    HW139526   1.649   3.581   4.033 -1.5172  0.9827  0.8809
12695SOL    HW239527   1.576   3.509   4.144  0.3803 -0.4059  1.2756
12696SOL     OW39528   0.847   1.981   5.194 -0.1573 -0.8189  0.1871
12696SOL    HW139529   0.788   1.990   5.120  1.3962 -1.6721 -1.2089
12696SOL    HW239530   0.912   2.051   5.183  2.2955 -3.1707 -1.4834
12697SOL     OW39531   0.357   4.134   7.398 -0.2356 -0.3277  0.3117
12697SOL    HW139532   0.438   4.147   7.447 -0.1392 -0.4415  0.1839
12697SOL    HW239533   0.385   4.091   7.317 -0.4861 -0.8810  0.5110
12698SOL     OW39534   0.088   1.209   9.195 -0.5169  0.0197 -0.1130
12698SOL    HW139535   0.108   1.232   9.285  1.4558  0.0458 -0.5047
12698SOL    HW239536  -0.007   1.215   9.188 -0.5924  1.3067  1.5973
12699SOL     OW39537   5.534   2.012   6.791 -0.5460  0.0095  0.1889
12699SOL    HW139538   5.571   1.924   6.793 -0.7304 -0.0665  0.3683
12699SOL    HW239539   5.582   2.057   6.721 -1.4834 -0.6923 -0.9423
12700SOL     OW39540   1.171   6.622   2.599  0.3257 -0.0892  0.2827
12700SOL    HW139541   1.083   6.653   2.620  0.3215 -1.6438  2.9013
12700SOL    HW239542   1.229   6.681   2.646  0.4988 -1.1599  1.4563
12701SOL     OW39543   5.764   0.482  11.659  0.5013  0.0151 -0.4758
12701SOL    HW139544   5.776   0.506  11.567  1.1705 -0.1880 -0.4517
12701SOL    HW239545   5.716   0.399  11.656  1.0789 -0.3215 -0.6745
12702SOL     OW39546   2.764   7.731   7.500 -0.0111 -0.6765 -0.4064
12702SOL    HW139547   2.689   7.674   7.511 -0.8866  0.2092 -1.5502
12702SOL    HW239548   2.840   7.673   7.503 -0.7391 -1.6004  0.5688
12703SOL     OW39549   6.163   3.013   9.420  0.1060  0.3409  0.4720
12703SOL    HW139550   6.175   3.091   9.474  0.0074 -0.1565  1.2313
12703SOL    HW239551   6.077   2.980   9.445 -1.0632  1.4737 -1.7943
12704SOL     OW39552   7.688   7.099   1.602 -0.3315  0.2162 -0.3323
12704SOL    HW139553   7.679   7.192   1.583 -0.3361  0.2530 -0.1471
12704SOL    HW239554   7.719   7.095   1.692 -1.3452  0.0179  0.0186
12705SOL     OW39555   1.557   7.083  10.133  0.1112 -0.3120 -0.4194
12705SOL    HW139556   1.516   7.035  10.062 -0.5403  1.1518 -1.0628
12705SOL    HW239557   1.611   7.150  10.090  1.3917 -0.7362  0.4468
12706SOL     OW39558   5.462   2.192  12.305  0.4838  0.0544 -0.0657
12706SOL    HW139559   5.484   2.271  12.354 -0.7975  0.4715 -0.1147
12706SOL    HW239560   5.450   2.124  12.372  3.1388 -0.5578 -0.1081
12707SOL     OW39561   0.658   7.729   5.039 -0.6327 -0.2060 -0.3154
12707SOL    HW139562   0.629   7.637   5.034 -1.0920 -0.0289 -0.9940
12707SOL    HW239563   0.753   7.724   5.043 -0.6532 -0.7096 -0.3516
12708SOL     OW39564   2.174   5.742   4.001  0.3955  0.1557  0.1537
12708SOL    HW139565   2.226   5.702   3.931 -2.0689 -0.6147 -1.3497
12708SOL    HW239566   2.085   5.747   3.966 -1.0956 -0.7470  3.4160
12709SOL     OW39567   1.277   1.577   3.857  0.2481  0.5182 -0.1979
12709SOL    HW139568   1.313   1.488   3.859  1.0775  0.7291 -2.3151
12709SOL    HW239569   1.332   1.627   3.917 -0.2490 -0.3722  1.0453
12710SOL     OW39570   6.826   0.856   8.068 -0.5140  0.0610  0.8821
12710SOL    HW139571   6.768   0.785   8.040  0.4468 -0.5759  0.4331
12710SOL    HW239572   6.891   0.812   8.123  1.1835  0.2428 -0.8899
12711SOL     OW39573   3.454   4.511   5.697 -0.3899 -0.4677  1.0372
12711SOL    HW139574   3.532   4.554   5.733 -0.5928  1.1395 -0.3041
12711SOL    HW239575   3.390   4.582   5.689 -1.7355 -1.6022  1.3664
12712SOL     OW39576   0.528   5.827   8.540 -0.0345  0.2345 -0.0476
12712SOL    HW139577   0.570   5.774   8.608 -0.0562 -0.1741 -0.3474
12712SOL    HW239578   0.572   5.802   8.459 -1.0161 -0.3969 -0.4145
12713SOL     OW39579   7.333   3.695   1.993  0.3126  0.4298 -0.2195
12713SOL    HW139580   7.311   3.651   1.910 -1.9293  0.7772  0.1191
12713SOL    HW239581   7.424   3.672   2.008  0.3295 -0.9640 -1.9816
12714SOL     OW39582   7.282   3.628   3.505  0.7436  0.0307 -0.1492
12714SOL    HW139583   7.226   3.698   3.539  1.5387  0.5242  0.1738
12714SOL    HW239584   7.318   3.664   3.424 -0.9406 -1.0403 -1.4549
12715SOL     OW39585   5.370   1.069   0.252  0.4246  0.4367 -0.1720
12715SOL    HW139586   5.299   1.013   0.221 -0.1943  1.8493 -1.4137
12715SOL    HW239587   5.427   1.081   0.176  0.8925  0.9877  0.2512
12716SOL     OW39588   0.615   5.917   1.253 -0.4021 -0.1381 -0.4009
12716SOL    HW139589   0.665   5.882   1.179  0.5345 -0.5508  0.4023
12716SOL    HW239590   0.539   5.860   1.260  0.6191 -1.4678  0.2958
12717SOL     OW39591   1.912   7.707   7.454 -0.2550 -0.4569 -0.0191
12717SOL    HW139592   1.863   7.735   7.377  0.1749 -0.6646 -0.3725
12717SOL    HW239593   1.868   7.628   7.484 -1.3110  0.4109  0.8201
12718SOL     OW39594   0.161   2.854   1.614  0.1633  0.0613  0.0585
12718SOL    HW139595   0.211   2.798   1.555 -1.9349 -3.1710  1.0634
12718SOL    HW239596   0.078   2.869   1.569 -0.4455 -0.2280  1.0392
12719SOL     OW39597   7.875   6.342   6.260 -0.0064  0.1081  0.4921
12719SOL    HW139598   7.817   6.279   6.217 -1.5279  0.0491  2.4934
12719SOL    HW239599   7.825   6.423   6.263  0.2249  0.2179  1.7335
12720SOL     OW39600   1.042   6.815   1.813  0.0952 -0.1060  0.5002
12720SOL    HW139601   0.959   6.863   1.819  0.9249  1.3766  0.7405
12720SOL    HW239602   1.047   6.788   1.721 -0.7621 -0.4168  0.5399
12721SOL     OW39603   7.922   6.915   6.579  0.3447  0.4268  0.4994
12721SOL    HW139604   7.993   6.923   6.514 -0.7563  0.9062 -0.6876
12721SOL    HW239605   7.939   6.985   6.642  0.6047  0.9272 -0.1135
12722SOL     OW39606   3.007   4.981   4.301  0.2628 -0.1143  0.6210
12722SOL    HW139607   3.083   5.037   4.285 -0.5624  0.7504 -0.4249
12722SOL    HW239608   2.981   5.000   4.391 -1.3646  2.9680 -0.3740
12723SOL     OW39609   6.464   2.479   2.745 -0.2683 -0.2726 -0.4731
12723SOL    HW139610   6.417   2.406   2.706 -1.5311  0.5294 -0.5138
12723SOL    HW239611   6.404   2.514   2.812  2.2093 -2.3267  3.1904
12724SOL     OW39612   3.075   0.252   3.229 -0.3931  0.5461 -0.0204
12724SOL    HW139613   3.021   0.295   3.294 -1.0546 -1.3078  0.7217
12724SOL    HW239614   3.147   0.313   3.213 -1.7669  2.3061  0.2505
12725SOL     OW39615   4.711   0.187   4.779  0.0590  0.5682 -0.8066
12725SOL    HW139616   4.789   0.162   4.829 -1.4793 -3.6663 -0.1343
12725SOL    HW239617   4.660   0.241   4.840  0.7863  0.2082  0.1424
12726SOL     OW39618   0.931   2.089  11.991 -0.7169  0.1855 -0.2712
12726SOL    HW139619   1.010   2.135  11.964 -0.6252  0.0055 -0.3109
12726SOL    HW239620   0.866   2.158  12.005  0.3038  0.6922  2.8697
12727SOL     OW39621   2.859   0.705   0.759  0.1431  0.5345  0.3826
12727SOL    HW139622   2.878   0.615   0.734  0.9016  0.6076  0.6770
12727SOL    HW239623   2.787   0.698   0.821 -0.3810  0.2028 -0.2430
12728SOL     OW39624   0.767   5.547   5.364  0.2438  0.1761  0.1573
12728SOL    HW139625   0.716   5.628   5.367 -0.4057 -0.2242  0.2787
12728SOL    HW239626   0.707   5.483   5.324  1.0719 -0.0139 -0.8337
12729SOL     OW39627   5.991   1.171   1.174 -0.6045 -0.2858  0.2641
12729SOL    HW139628   5.929   1.203   1.109  0.6795 -0.0067 -0.8919
12729SOL    HW239629   5.942   1.108   1.226 -1.7012 -0.4683 -0.9415
12730SOL     OW39630   0.416   6.246   2.654  0.2615  0.7141 -0.0198
12730SOL    HW139631   0.449   6.285   2.574  0.9913  2.9149  1.2664
12730SOL    HW239632   0.491   6.245   2.714 -0.4675 -0.0803  0.9339
12731SOL     OW39633   0.829   0.293   7.293 -0.2769  0.2415  0.0567
12731SOL    HW139634   0.909   0.327   7.333  0.2756  0.3084 -1.0411
12731SOL    HW239635   0.853   0.205   7.264 -0.0789  0.8115 -1.6589
12732SOL     OW39636   6.839   6.535   5.396 -0.0042  0.1145 -0.2134
12732SOL    HW139637   6.833   6.490   5.312 -1.4756  0.2399 -0.2069
12732SOL    HW239638   6.778   6.608   5.389  1.1106  1.1275  0.3785
12733SOL     OW39639   0.504   5.390   3.172  0.3453 -0.3911 -0.2910
12733SOL    HW139640   0.536   5.389   3.263 -2.7167 -0.6498  0.9298
12733SOL    HW239641   0.514   5.300   3.142 -0.7775 -0.9029  0.7355
12734SOL     OW39642   0.127   3.362   6.168 -0.1362 -0.4676  0.1996
12734SOL    HW139643   0.171   3.364   6.253  0.3582 -2.1569  0.0051
12734SOL    HW239644   0.046   3.315   6.184 -2.3165  3.0933  0.6824
12735SOL     OW39645   2.197   5.222   8.534  0.1066  0.0989 -0.0568
12735SOL    HW139646   2.190   5.128   8.517 -0.4079  0.2928 -0.9652
12735SOL    HW239647   2.273   5.250   8.484  0.3654  0.1435  0.3545
12736SOL     OW39648   4.537   0.270   4.303 -0.3531 -0.4238  0.2922
12736SOL    HW139649   4.587   0.283   4.384  0.0969  2.3075 -0.3250
12736SOL    HW239650   4.522   0.359   4.269 -2.2216 -1.3744 -1.6225
12737SOL     OW39651   7.356   5.708   6.508  0.4969  0.0292  0.1294
12737SOL    HW139652   7.339   5.631   6.561  0.5276  0.6812  1.1103
12737SOL    HW239653   7.329   5.683   6.419  1.1540 -1.3240  0.2938
12738SOL     OW39654   2.880   3.499   1.250  0.1617  0.1439 -0.0889
12738SOL    HW139655   2.805   3.440   1.254 -0.0404  0.3848 -0.2772
12738SOL    HW239656   2.945   3.452   1.197  0.0255  0.0610 -0.1828
12739SOL     OW39657   4.248   0.250   7.468  0.2699  0.1738 -0.6244
12739SOL    HW139658   4.325   0.290   7.428  0.1280  0.7258 -0.3584
12739SOL    HW239659   4.178   0.315   7.455 -0.1071 -0.2427 -0.7061
12740SOL     OW39660   5.236   7.773   5.345 -1.0198 -0.4128  0.0948
12740SOL    HW139661   5.167   7.706   5.345 -0.9570 -0.6227  3.1432
12740SOL    HW239662   5.233   7.810   5.434  3.2849 -0.9756  0.6610
12741SOL     OW39663   0.263   5.757   0.768 -0.2145 -0.5442 -0.4224
12741SOL    HW139664   0.316   5.679   0.750 -0.4653 -0.8330  0.0915
12741SOL    HW239665   0.172   5.727   0.758 -0.3005 -0.0899 -1.1440
12742SOL     OW39666   0.186   5.927   6.302  0.0792 -0.0816  0.5430
12742SOL    HW139667   0.206   5.914   6.395 -0.3079  1.6663  0.9075
12742SOL    HW239668   0.097   5.894   6.292  0.4361 -1.0836  0.5823
12743SOL     OW39669   3.662   2.103   6.540  0.1101 -0.6494  0.6300
12743SOL    HW139670   3.718   2.150   6.602  1.5266  1.4840 -2.0276
12743SOL    HW239671   3.722   2.048   6.491 -1.0490 -2.6483  1.3632
12744SOL     OW39672   1.402   4.786   9.075  0.0042  0.1592 -0.3951
12744SOL    HW139673   1.320   4.764   9.120  0.1258  1.3981  0.4864
12744SOL    HW239674   1.430   4.704   9.035 -1.2413 -0.4764 -0.0261
12745SOL     OW39675   4.979   2.737   5.602  0.2326 -0.1168 -0.4788
12745SOL    HW139676   4.931   2.812   5.638  0.2079  0.1729 -1.0946
12745SOL    HW239677   5.067   2.773   5.584  0.4883 -0.4701  0.0334
12746SOL     OW39678   6.840   1.481   1.617  0.0242  0.2271 -0.1102
12746SOL    HW139679   6.898   1.500   1.543  0.5031  0.9985  0.4475
12746SOL    HW239680   6.830   1.565   1.662  0.1536 -0.3288  0.9870
12747SOL     OW39681   1.830   1.802   1.281 -0.2143 -0.2931  0.1054
12747SOL    HW139682   1.804   1.892   1.301  0.8225  0.0161  0.1349
12747SOL    HW239683   1.926   1.805   1.278 -0.1772 -1.3431 -0.1575
12748SOL     OW39684   0.704   6.948   0.380 -0.2841  0.1747 -0.1255
12748SOL    HW139685   0.616   6.944   0.341 -1.4197 -0.7203  2.3164
12748SOL    HW239686   0.741   6.861   0.364 -0.9297 -0.3465  1.1102
12749SOL     OW39687   0.897   7.692   3.615 -0.2376  0.0862  0.0650
12749SOL    HW139688   0.880   7.695   3.709 -0.1769 -2.0589  0.1977
12749SOL    HW239689   0.962   7.761   3.600 -1.8720  1.9690  1.1637
12750SOL     OW39690   2.514   5.353   3.464  0.1824 -0.5738  0.4849
12750SOL    HW139691   2.460   5.294   3.516  0.0407  0.2115  1.2560
12750SOL    HW239692   2.518   5.434   3.515  2.0641 -0.5887  0.4460
12751SOL     OW39693   7.856   5.770  11.591 -0.2410  0.0027  0.0537
12751SOL    HW139694   7.930   5.761  11.531  0.2878 -0.7362  0.7879
12751SOL    HW239695   7.893   5.752  11.677 -1.2670 -0.3171  0.4426
12752SOL     OW39696   2.612   3.313   5.309  0.1870 -0.3068 -0.4905
12752SOL    HW139697   2.526   3.318   5.351  0.1851  0.8712 -0.5880
12752SOL    HW239698   2.618   3.224   5.274 -0.7212 -0.5976  0.0877
12753SOL     OW39699   4.611   4.913   0.821  0.5700  0.5596 -0.0291
12753SOL    HW139700   4.559   4.837   0.795 -1.7601  1.2751  2.0844
12753SOL    HW239701   4.694   4.877   0.851 -0.5732 -1.2181  1.1515
12754SOL     OW39702   0.445   5.440   5.281  0.5411  0.0824 -0.0958
12754SOL    HW139703   0.386   5.452   5.356  0.7769 -0.3220  0.1599
12754SOL    HW239704   0.445   5.525   5.237  2.2369  1.1003  1.7038
12755SOL     OW39705   5.500   2.944   8.012  0.2310 -0.7755  0.4362
12755SOL    HW139706   5.491   3.014   8.076 -2.0933 -1.0040  0.4402
12755SOL    HW239707   5.531   2.987   7.932 -1.7635  0.4019  0.2465
12756SOL     OW39708   5.428   6.845   8.165 -0.0905  0.3551  0.4195
12756SOL    HW139709   5.463   6.922   8.121 -0.9394  0.2441 -0.4853
12756SOL    HW239710   5.492   6.776   8.146  0.9393  0.9058  1.6572
12757SOL     OW39711   3.232   0.845   9.648  0.1501  0.8799  0.5951
12757SOL    HW139712   3.168   0.805   9.707 -0.2920  0.3032 -0.2513
12757SOL    HW239713   3.243   0.935   9.681 -1.6956  1.2493  0.3066
12758SOL     OW39714   2.706   0.546   0.274  0.2124  0.1065 -0.0309
12758SOL    HW139715   2.772   0.571   0.339  2.2985  1.3200 -2.4485
12758SOL    HW239716   2.648   0.622   0.270  2.0137  1.4827 -1.8216
12759SOL     OW39717   6.008   0.625   3.389 -0.2114 -0.1802  0.1361
12759SOL    HW139718   6.024   0.716   3.412 -0.1120  0.4534 -2.2272
12759SOL    HW239719   5.952   0.629   3.312 -1.5347 -2.1735  0.9104
12760SOL     OW39720   2.897   5.847  11.840 -0.0511  0.8979 -0.3113
12760SOL    HW139721   2.911   5.812  11.752 -1.1623 -0.9120  0.1954
12760SOL    HW239722   2.850   5.929  11.825 -2.4909 -0.5833 -1.3805
12761SOL     OW39723   1.095   1.221   7.207  0.0173  0.2871  0.2207
12761SOL    HW139724   1.089   1.133   7.169 -0.7205  0.5664 -0.3387
12761SOL    HW239725   1.098   1.206   7.301  0.5939 -0.3649  0.1106
12762SOL     OW39726   6.089   1.870  11.696 -0.4943 -0.2126  0.2582
12762SOL    HW139727   6.172   1.830  11.670 -1.7710 -3.0736  0.2918
12762SOL    HW239728   6.052   1.904  11.614 -0.5087 -1.3992 -0.2511
12763SOL     OW39729   6.300   3.901   2.885  0.1038  0.5534  0.1476
12763SOL    HW139730   6.309   3.872   2.976  0.6774  1.1178  0.2751
12763SOL    HW239731   6.205   3.899   2.868  0.0920 -1.1831  0.2100
12764SOL     OW39732   4.870   3.699   8.611  0.0582  0.9811  0.8065
12764SOL    HW139733   4.928   3.729   8.681  0.8965  0.9626  0.1386
12764SOL    HW239734   4.913   3.728   8.530 -1.0297  1.2467  0.3018
12765SOL     OW39735   1.160   4.118   1.540 -0.2475 -0.4359 -0.0589
12765SOL    HW139736   1.141   4.040   1.487 -1.1224 -0.8320  0.8041
12765SOL    HW239737   1.254   4.112   1.558 -0.4099 -1.6625  0.5348
12766SOL     OW39738   7.007   3.286  10.093  0.3936  0.0289  0.4800
12766SOL    HW139739   7.017   3.247  10.006  1.4607  1.9256 -0.3223
12766SOL    HW239740   6.931   3.243  10.131  0.6492 -1.7190 -0.8990
12767SOL     OW39741   5.429   5.026   8.561  0.6547  0.3472  0.1362
12767SOL    HW139742   5.478   5.107   8.548 -0.2809  0.8198 -0.5980
12767SOL    HW239743   5.463   4.967   8.494  1.9075 -0.1601  1.1924
12768SOL     OW39744   1.677   1.522  11.245  0.1933  0.1482  0.1272
12768SOL    HW139745   1.754   1.497  11.297  0.6315  1.4017  0.1168
12768SOL    HW239746   1.713   1.566  11.168 -0.5264  1.0492  0.2817
12769SOL     OW39747   6.308   3.216   1.106 -0.3593  0.1083  0.0729
12769SOL    HW139748   6.376   3.235   1.042 -0.0460  1.0236  0.6670
12769SOL    HW239749   6.266   3.300   1.123 -1.3479 -0.3633  0.0528
12770SOL     OW39750   3.993   2.019  10.238  0.1522  0.0221 -0.0646
12770SOL    HW139751   3.898   2.012  10.252  0.2666  0.5184  1.1050
12770SOL    HW239752   4.002   2.030  10.143 -1.2070  3.0342  0.0370
12771SOL     OW39753   5.841   0.460   3.837 -0.1568 -0.3438 -0.0130
12771SOL    HW139754   5.878   0.385   3.792 -1.3003 -1.3273  0.6337
12771SOL    HW239755   5.751   0.434   3.858  0.0648  0.3897  2.0735
12772SOL     OW39756   5.970   1.168   5.379 -0.0154 -0.0516 -0.2241
12772SOL    HW139757   6.063   1.171   5.356  0.1773  0.1589  0.5599
12772SOL    HW239758   5.954   1.250   5.427 -0.1236 -0.9900  1.4164
12773SOL     OW39759   0.833   0.832   6.224 -0.0178  0.6162 -0.5777
12773SOL    HW139760   0.925   0.849   6.202  0.8859 -1.5901  1.2181
12773SOL    HW239761   0.826   0.857   6.316 -0.8879 -0.4089 -0.3611
12774SOL     OW39762   7.957   1.256   4.348  0.5267 -0.5420  0.3778
12774SOL    HW139763   7.924   1.171   4.379 -0.4657 -0.0054  0.8263
12774SOL    HW239764   7.946   1.252   4.253 -1.5209 -0.1217  0.5561
12775SOL     OW39765   6.086   0.033   5.170  0.7288  0.3989 -0.1541
12775SOL    HW139766   6.020   0.045   5.102  0.0444 -0.1956  0.3876
12775SOL    HW239767   6.039   0.049   5.252  1.1483 -0.4270  0.2615
12776SOL     OW39768   0.561   1.379  11.246 -0.5490  0.0903 -0.4716
12776SOL    HW139769   0.488   1.320  11.226  0.7005 -1.8018  0.2496
12776SOL    HW239770   0.623   1.325  11.295  0.5013  2.1410  0.6103
12777SOL     OW39771   0.176   1.842   8.908  0.1952 -0.0222 -0.1725
12777SOL    HW139772   0.098   1.891   8.936 -0.8489 -1.4097 -0.5216
12777SOL    HW239773   0.198   1.879   8.823 -0.7213 -0.2953 -0.5372
12778SOL     OW39774   0.602   0.951   6.103  0.1501 -0.3410 -0.1520
12778SOL    HW139775   0.672   0.909   6.153  2.0899  1.6760 -0.9913
12778SOL    HW239776   0.560   1.010   6.166  0.1378 -0.5368  0.0230
12779SOL     OW39777   4.922   6.003  10.912 -0.8814 -0.2070 -0.2330
12779SOL    HW139778   4.998   5.980  10.965 -1.2171  0.0251  0.3581
12779SOL    HW239779   4.907   5.927  10.856 -1.2699 -0.9519  0.8643
12780SOL     OW39780   1.852   1.746   2.362 -0.0520  0.4227 -0.1311
12780SOL    HW139781   1.770   1.706   2.391  0.5317 -0.7911 -0.0784
12780SOL    HW239782   1.825   1.824   2.314 -1.1831  0.6584  0.8241
12781SOL     OW39783   7.535   0.828  10.169 -0.0233  0.3239 -0.5507
12781SOL    HW139784   7.546   0.747  10.219 -1.1078  0.2776 -0.3602
12781SOL    HW239785   7.558   0.898  10.231 -0.3354  0.2204 -0.3193
12782SOL     OW39786   5.763   3.613   6.862  0.6769 -0.0532  0.5822
12782SOL    HW139787   5.842   3.560   6.859  2.0441  1.9381 -0.7143
12782SOL    HW239788   5.704   3.571   6.798  2.4538  0.9682 -1.8710
12783SOL     OW39789   5.383   7.490   9.146  0.0948 -0.1390 -0.4851
12783SOL    HW139790   5.345   7.403   9.140 -0.4054 -0.1062  1.5691
12783SOL    HW239791   5.327   7.545   9.091 -1.8963 -0.4117  1.1562
12784SOL     OW39792   5.390   6.220  11.213 -0.1822 -0.3459 -0.7118
12784SOL    HW139793   5.485   6.226  11.208 -0.1480 -1.2702 -1.2089
12784SOL    HW239794   5.369   6.249  11.302  1.0248 -5.2146  1.4452
12785SOL     OW39795   0.243   2.278   5.371  0.0824 -0.1546  0.1035
12785SOL    HW139796   0.151   2.303   5.385 -0.2409 -1.1975 -0.0844
12785SOL    HW239797   0.281   2.278   5.459 -0.3252 -0.5604  0.2846
12786SOL     OW39798   1.460   6.391   4.519 -0.3464  0.1331 -0.9117
12786SOL    HW139799   1.443   6.297   4.509  0.7004 -0.0837 -0.8015
12786SOL    HW239800   1.475   6.422   4.430  0.4786 -0.0580 -0.8507
12787SOL     OW39801   4.508   0.721   5.488 -0.3166  0.0303 -0.5771
12787SOL    HW139802   4.545   0.634   5.500 -0.3236  0.1207  0.1812
12787SOL    HW239803   4.413   0.707   5.489 -0.3126 -0.0645 -1.3857
12788SOL     OW39804   4.255   7.272   6.688 -0.3063  0.2743  0.3229
12788SOL    HW139805   4.203   7.304   6.762  0.4133 -0.1013  1.0063
12788SOL    HW239806   4.246   7.177   6.691 -0.5545  0.2755 -0.2853
12789SOL     OW39807   5.462   5.444   2.495  0.0158  0.5049  0.2209
12789SOL    HW139808   5.412   5.526   2.498 -2.0655 -0.5161 -2.7448
12789SOL    HW239809   5.526   5.457   2.425  0.5323  0.0079  0.5913
12790SOL     OW39810   3.629   3.635   0.415  0.1443 -0.2581  0.6171
12790SOL    HW139811   3.664   3.605   0.499  1.5242 -0.3797  0.0303
12790SOL    HW239812   3.707   3.659   0.364 -0.7497  3.7555  0.7818
12791SOL     OW39813   6.763   4.915  10.806  0.1969 -0.0933  0.0454
12791SOL    HW139814   6.685   4.885  10.759 -0.5505  0.8363  0.6582
12791SOL    HW239815   6.827   4.845  10.794 -0.2104 -0.2185 -1.7447
12792SOL     OW39816   1.873   5.427   6.362 -0.5799  0.1864  0.4523
12792SOL    HW139817   1.833   5.391   6.282 -0.4796  0.8466  0.1023
12792SOL    HW239818   1.965   5.440   6.338  0.3030 -2.7731  1.6998
12793SOL     OW39819   1.850   0.050   1.141  0.1637 -0.3730  0.2393
12793SOL    HW139820   1.811   0.128   1.101  0.0784 -0.8022 -0.5432
12793SOL    HW239821   1.945   0.067   1.138  0.1178 -0.0182  0.6805
12794SOL     OW39822   6.642   5.574   3.784 -0.2451  0.3689 -0.1808
12794SOL    HW139823   6.624   5.650   3.839  2.0917  0.9567 -0.1568
12794SOL    HW239824   6.681   5.510   3.843  0.4438  0.2550 -0.7459
12795SOL     OW39825   0.387   0.766  11.298 -0.1278 -0.2548 -0.3571
12795SOL    HW139826   0.356   0.836  11.356 -0.6620 -0.0779 -0.8452
12795SOL    HW239827   0.310   0.743  11.245  0.0778 -1.1272 -0.2893
12796SOL     OW39828   4.638   5.536   6.352  0.2311  0.2755 -0.2041
12796SOL    HW139829   4.719   5.574   6.387  1.1961 -1.7941 -0.0735
12796SOL    HW239830   4.657   5.443   6.341 -2.5304 -0.5585  1.0364
12797SOL     OW39831   7.896   0.769   4.086  0.3102 -0.6824  0.5054
12797SOL    HW139832   7.914   0.755   4.179 -3.4523 -2.4781  1.1434
12797SOL    HW239833   7.896   0.864   4.075  0.2125 -0.4253  2.5072
12798SOL     OW39834   7.364   3.108   4.916  0.4531 -0.2064  0.5229
12798SOL    HW139835   7.308   3.155   4.978 -0.2965 -0.9575  0.4398
12798SOL    HW239836   7.418   3.051   4.970  1.0630  0.4207  0.5935
12799SOL     OW39837   1.698   3.702   1.815 -0.1895  0.2827  0.0072
12799SOL    HW139838   1.648   3.634   1.860  0.7170  0.7275  1.7862
12799SOL    HW239839   1.788   3.672   1.819  0.1890  1.4107  0.5519
12800SOL     OW39840   7.025   1.481   3.009 -0.1761 -0.3161 -0.1792
12800SOL    HW139841   7.004   1.486   2.916 -0.7201 -0.5513 -0.0772
12800SOL    HW239842   7.120   1.470   3.012 -0.2866 -1.5826 -0.7600
12801SOL     OW39843   7.227   0.937   2.332 -0.4074 -0.4152 -0.2116
12801SOL    HW139844   7.266   1.019   2.301 -1.0903  1.2262  2.8509
12801SOL    HW239845   7.146   0.929   2.283 -0.1589  0.5753 -0.8210
12802SOL     OW39846   2.402   5.858   5.301  0.3981 -0.1151  0.3616
12802SOL    HW139847   2.424   5.785   5.358  0.9553 -0.8420 -0.7623
12802SOL    HW239848   2.323   5.830   5.255  0.7164 -0.0977 -0.2080
12803SOL     OW39849   3.335   3.545   6.418  0.0116  0.0408 -0.2798
12803SOL    HW139850   3.326   3.468   6.474 -0.3089  1.6361  2.0435
12803SOL    HW239851   3.364   3.511   6.334 -0.5132 -2.6292  0.5170
12804SOL     OW39852   6.707   4.869   6.189 -0.1049 -0.0429 -0.6354
12804SOL    HW139853   6.756   4.892   6.110 -0.5887  0.0778 -0.9042
12804SOL    HW239854   6.725   4.941   6.251  1.9350 -1.1549  0.1253
12805SOL     OW39855   6.860   3.639   9.535 -0.0885 -0.1394 -0.2747
12805SOL    HW139856   6.821   3.577   9.474 -0.5890  2.1285 -2.3990
12805SOL    HW239857   6.787   3.667   9.591 -1.3418  2.6162 -2.9820
12806SOL     OW39858   6.876   0.052   2.261 -0.7106  0.4400 -0.3341
12806SOL    HW139859   6.794   0.102   2.261 -1.1703 -0.2888 -0.9653
12806SOL    HW239860   6.874   0.003   2.344 -1.1183  0.1147 -0.5312
12807SOL     OW39861   1.819   5.449   8.747 -0.3832  0.4296 -0.7048
12807SOL    HW139862   1.833   5.534   8.789 -0.5898  0.5380 -0.8509
12807SOL    HW239863   1.896   5.397   8.771 -0.7969  0.2666  0.3562
12808SOL     OW39864   5.622   6.790   5.555 -0.0649 -0.8392  0.6639
12808SOL    HW139865   5.635   6.775   5.462 -0.3217 -1.2943  0.7003
12808SOL    HW239866   5.682   6.862   5.577  0.6252 -1.3118  0.3401
12809SOL     OW39867   5.378   0.406   0.214 -0.8188  0.3296 -0.3131
12809SOL    HW139868   5.380   0.322   0.168 -1.3917  0.0422  0.1827
12809SOL    HW239869   5.301   0.401   0.271 -0.2580  0.7836  0.4992
12810SOL     OW39870   6.219   4.268   5.950  0.4087  0.0825  0.3155
12810SOL    HW139871   6.138   4.236   5.910  0.7495 -0.2352 -0.1362
12810SOL    HW239872   6.273   4.190   5.961  0.8125  0.3487  0.2389
12811SOL     OW39873   2.382   1.557  11.788 -0.5755 -0.1581 -0.4666
12811SOL    HW139874   2.459   1.607  11.815  0.0382 -0.7858 -1.0283
12811SOL    HW239875   2.401   1.530  11.698 -0.3294 -2.4343  0.2062
12812SOL     OW39876   3.643   7.383   2.731 -0.1187  0.4254 -0.1358
12812SOL    HW139877   3.640   7.326   2.807 -0.1041  0.9514  0.2643
12812SOL    HW239878   3.565   7.438   2.738 -0.1135  0.4845 -0.4964
12813SOL     OW39879   4.737   0.549   9.275  0.0522  0.0863 -0.2612
12813SOL    HW139880   4.686   0.476   9.309 -0.0531  0.0120 -0.5742
12813SOL    HW239881   4.685   0.627   9.296 -0.6371 -0.0506 -1.3535
12814SOL     OW39882   5.622   7.567   0.458  0.5852  0.4573 -0.3205
12814SOL    HW139883   5.659   7.653   0.437  0.4829  0.4169 -0.6735
12814SOL    HW239884   5.644   7.554   0.550  0.7717  0.7762 -0.3156
12815SOL     OW39885   2.364   5.743  11.597  0.0146  0.8994 -0.1021
12815SOL    HW139886   2.283   5.744  11.648  0.4929  0.0048  0.7064
12815SOL    HW239887   2.337   5.714  11.510 -0.3904 -0.6489  0.4960
12816SOL     OW39888   4.027   4.783   7.740 -0.0433  0.0077 -0.1434
12816SOL    HW139889   4.046   4.863   7.789 -1.7711  1.1013 -1.1322
12816SOL    HW239890   3.933   4.771   7.750  0.4175 -3.0282  1.5221
12817SOL     OW39891   3.428   0.298  10.271 -0.1942  0.5099  0.1983
12817SOL    HW139892   3.465   0.292  10.183  0.2038 -1.9399  0.4746
12817SOL    HW239893   3.502   0.322  10.326  0.1068 -0.3925  0.1944
12818SOL     OW39894   4.273   4.766   2.213  0.4390  0.1393  0.5124
12818SOL    HW139895   4.262   4.709   2.289  0.2821  0.2020  0.5367
12818SOL    HW239896   4.240   4.714   2.139  1.3838 -0.2457  0.3576
12819SOL     OW39897   0.760   3.493   9.266 -0.2229 -0.0959  0.0107
12819SOL    HW139898   0.667   3.500   9.244 -0.1781  0.6910  0.0518
12819SOL    HW239899   0.778   3.570   9.319  0.4117 -0.3521  0.1783
12820SOL     OW39900   7.001   7.656   2.261  0.2156  0.2496 -0.1872
12820SOL    HW139901   7.038   7.685   2.345 -1.1888 -0.9025  0.8644
12820SOL    HW239902   7.007   7.561   2.264 -1.6891  0.0848 -0.5024
12821SOL     OW39903   0.847   7.362   9.470  0.2488  0.1874 -0.1357
12821SOL    HW139904   0.762   7.325   9.491  1.1940  0.1107  4.6342
12821SOL    HW239905   0.832   7.456   9.463 -0.3804  0.0639 -0.4784
12822SOL     OW39906   4.184   0.756   4.584  0.3796  0.1527 -0.2183
12822SOL    HW139907   4.197   0.843   4.548 -1.7594  0.3734 -0.6170
12822SOL    HW239908   4.272   0.723   4.601  1.2551  2.0935 -0.7261
12823SOL     OW39909   0.224   7.876   0.005  0.0675 -0.4543  0.2742
12823SOL    HW139910   0.176   7.827   0.072 -1.4978 -1.7584 -1.6984
12823SOL    HW239911   0.221   7.821  -0.073  3.2121  0.2663 -0.5262
12824SOL     OW39912   7.815   2.206   5.483  0.1732  0.1277 -0.3562
12824SOL    HW139913   7.876   2.273   5.450  2.4379 -1.1434  1.0032
12824SOL    HW239914   7.748   2.256   5.530  1.5053  1.5080  0.1662
12825SOL     OW39915   3.106   7.128   3.501  0.1892 -0.5322 -0.7192
12825SOL    HW139916   3.044   7.068   3.459  0.1983 -1.3614  0.4146
12825SOL    HW239917   3.185   7.076   3.514  0.3690 -0.1260 -0.1533
12826SOL     OW39918   4.736   0.093   3.458 -0.6571 -0.0597 -0.8576
12826SOL    HW139919   4.755   0.073   3.549  1.3730 -1.6445 -1.5404
12826SOL    HW239920   4.686   0.017   3.427  0.0438 -0.3021 -1.4328
12827SOL     OW39921   6.393   0.122   4.985  0.1638  0.2303  0.0605
12827SOL    HW139922   6.480   0.162   4.987  0.4452 -0.2171 -1.5922
12827SOL    HW239923   6.335   0.194   4.960 -0.3127  1.0086  2.9897
12828SOL     OW39924   7.150   6.810  10.162 -0.1976 -0.8113  0.4065
12828SOL    HW139925   7.056   6.803  10.179  0.1389 -0.2971  2.7632
12828SOL    HW239926   7.175   6.723  10.133 -1.2675 -1.1492  0.4326
12829SOL     OW39927   1.355   6.718   7.232  0.0926  0.0583 -0.2151
12829SOL    HW139928   1.446   6.700   7.253  0.3345  1.1695 -0.2282
12829SOL    HW239929   1.305   6.672   7.300  0.6870 -0.0199  0.1711
12830SOL     OW39930   4.933   6.557   2.347  0.1858  0.2535 -0.5699
12830SOL    HW139931   4.987   6.636   2.341  0.5647 -0.0510 -1.3261
12830SOL    HW239932   4.989   6.487   2.313  0.2804 -0.5682  1.1336
12831SOL     OW39933   4.140   5.714   6.654 -0.0851  0.5862 -0.5001
12831SOL    HW139934   4.183   5.671   6.579 -2.3837 -2.2839 -0.3766
12831SOL    HW239935   4.056   5.744   6.619  0.2508  2.4544  0.1761
12832SOL     OW39936   1.084   0.309   0.182  0.0798  0.4255 -0.3997
12832SOL    HW139937   0.997   0.344   0.204 -0.5719 -1.9641  1.1434
12832SOL    HW239938   1.068   0.216   0.164  1.7945  0.6545 -3.8210
12833SOL     OW39939   5.176   4.643   6.252  0.6063  0.6869  0.3020
12833SOL    HW139940   5.160   4.571   6.314  0.6888  0.0404 -0.4109
12833SOL    HW239941   5.241   4.608   6.191  0.6310  1.3664 -0.0701
12834SOL     OW39942   6.703   6.012   3.202  0.0839  0.3082  0.3402
12834SOL    HW139943   6.712   5.947   3.133 -0.4865  1.9283 -1.3230
12834SOL    HW239944   6.782   6.066   3.194 -0.6162  1.3203  0.0338
12835SOL     OW39945   6.694   1.990   2.870  0.6984 -0.2067 -0.2525
12835SOL    HW139946   6.704   1.940   2.789 -0.7665 -0.1946 -0.4709
12835SOL    HW239947   6.756   1.950   2.931  0.5896 -1.3582 -0.8657
12836SOL     OW39948   1.200   0.706   3.490 -0.1752  0.1300  0.3601
12836SOL    HW139949   1.148   0.644   3.439 -0.2874  0.3759  0.1704
12836SOL    HW239950   1.142   0.781   3.503 -0.6046 -0.4413  1.9646
12837SOL     OW39951   2.873   5.541  10.432  0.5169 -0.1445 -0.6729
12837SOL    HW139952   2.841   5.561  10.344  0.0817 -0.0019 -0.4844
12837SOL    HW239953   2.916   5.456  10.422 -1.1318 -1.0255 -0.6713
12838SOL     OW39954   5.240   5.742   2.019 -0.0605  0.3219 -0.1672
12838SOL    HW139955   5.207   5.802   1.953 -0.0245 -0.0600 -0.5331
12838SOL    HW239956   5.199   5.658   1.998  0.6397 -0.0085 -0.2404
12839SOL     OW39957   4.538   6.257   4.384 -0.2167  0.0279 -0.3746
12839SOL    HW139958   4.537   6.286   4.292 -0.6281 -1.2824 -0.8053
12839SOL    HW239959   4.470   6.190   4.389  2.0090 -2.3687  0.0391
12840SOL     OW39960   4.870   6.889   5.865 -0.1981 -0.5713  0.3248
12840SOL    HW139961   4.882   6.978   5.833 -1.4487  0.1761  1.7942
12840SOL    HW239962   4.945   6.840   5.830  0.2653  0.9248 -0.8861
12841SOL     OW39963   2.934   2.056   2.085 -0.3884 -0.0790 -0.6750
12841SOL    HW139964   2.886   2.019   2.159 -1.5067 -0.3281 -1.5053
12841SOL    HW239965   2.967   2.140   2.117  1.4834 -1.3367  0.9818
12842SOL     OW39966   4.151   2.614   4.222  0.1697 -0.4033  0.2903
12842SOL    HW139967   4.176   2.530   4.184  0.6902 -0.9826  1.8451
12842SOL    HW239968   4.130   2.669   4.147  1.3482 -1.4362 -0.8469
12843SOL     OW39969   6.128   2.006   4.857  0.2064  0.2539 -0.1600
12843SOL    HW139970   6.087   2.071   4.914  0.6019 -0.2502  0.7125
12843SOL    HW239971   6.171   2.058   4.789 -0.0968  0.8657  0.1070
12844SOL     OW39972   3.242   6.628   1.056 -0.1456 -0.1062 -0.7363
12844SOL    HW139973   3.199   6.653   1.137 -1.2752 -0.1627 -1.3037
12844SOL    HW239974   3.275   6.540   1.073  1.3557  0.6088  0.3010
12845SOL     OW39975   1.461   1.606   1.510  0.5765  0.1331  0.0810
12845SOL    HW139976   1.548   1.569   1.519  0.1500 -0.7999  0.4805
12845SOL    HW239977   1.415   1.580   1.589  0.2119  1.4245  0.3237
12846SOL     OW39978   0.725   6.347  10.973  0.0318  0.4577 -0.1548
12846SOL    HW139979   0.632   6.369  10.979 -0.6685 -2.0296 -0.6227
12846SOL    HW239980   0.760   6.362  11.061 -0.8547  1.1943  0.0788
12847SOL     OW39981   5.684   5.140   9.684  0.2595  0.3943  0.9754
12847SOL    HW139982   5.724   5.225   9.704 -0.2987  0.3955  2.1686
12847SOL    HW239983   5.591   5.160   9.672 -0.2257 -0.2869  3.2126
12848SOL     OW39984   4.259   2.320   2.643  0.0622  1.1951  0.2882
12848SOL    HW139985   4.263   2.316   2.547 -0.8517 -0.6199  0.2820
12848SOL    HW239986   4.348   2.300   2.671 -0.1212 -0.3901 -0.1838
12849SOL     OW39987   1.292   2.910   1.051  0.1388 -0.5062 -0.8676
12849SOL    HW139988   1.381   2.904   1.086 -0.1535 -2.0262 -0.3046
12849SOL    HW239989   1.254   2.985   1.095  0.4523 -1.1490  0.5566
12850SOL     OW39990   5.420   7.305   1.510  0.4830  0.1186  0.0082
12850SOL    HW139991   5.342   7.360   1.496  1.8685  1.9668 -0.9377
12850SOL    HW239992   5.477   7.359   1.565  2.5254  0.3628 -2.1750
12851SOL     OW39993   2.079   4.825   2.211 -0.0454  0.4949 -0.0478
12851SOL    HW139994   2.038   4.905   2.244  1.2300  0.6252  1.3133
12851SOL    HW239995   2.006   4.765   2.195 -1.3469  2.6571 -3.4986
12852SOL     OW39996   2.062   4.280   2.736  0.2446 -0.4383  0.7376
12852SOL    HW139997   2.129   4.215   2.757  0.6071 -1.1589 -2.2178
12852SOL    HW239998   1.981   4.230   2.729 -0.5376  0.3028  3.4492
12853SOL     OW39999   2.751   3.177   8.516 -0.6444  0.5592  0.4556
12853SOL    HW140000   2.836   3.193   8.476 -1.3035  0.8389 -0.9105
12853SOL    HW240001   2.771   3.141   8.603  0.8514  0.0262 -0.0750
12854SOL     OW40002   5.123   0.537   3.638  0.1344  0.6600  0.3876
12854SOL    HW140003   5.146   0.628   3.656 -0.3415  0.3237  3.0292
12854SOL    HW240004   5.200   0.487   3.666 -0.6417  0.0906  1.5422
12855SOL     OW40005   5.203   1.507   6.143  0.0022  0.3926 -0.0498
12855SOL    HW140006   5.184   1.582   6.199  0.3206 -0.2650  0.9617
12855SOL    HW240007   5.116   1.474   6.117 -0.1465  0.7558 -0.0196
12856SOL     OW40008   5.273   6.333  10.313 -0.6345 -0.4712 -0.3912
12856SOL    HW140009   5.318   6.249  10.310 -0.8051 -0.5472 -2.1762
12856SOL    HW240010   5.193   6.316  10.363 -0.4553 -1.2538 -0.3624
12857SOL     OW40011   5.009   3.997   8.595 -0.4435  0.7029  0.5841
12857SOL    HW140012   5.043   3.909   8.613 -0.0624  0.5583 -0.6947
12857SOL    HW240013   5.003   4.039   8.681 -1.4218 -0.8428  1.3027
12858SOL     OW40014   1.541   2.667   4.488  0.3862  0.2469 -0.5368
12858SOL    HW140015   1.490   2.606   4.434 -0.8060  0.8988 -0.1962
12858SOL    HW240016   1.512   2.649   4.577 -0.3968  1.6547 -0.4756
12859SOL     OW40017   0.729   1.259  11.448  0.0635  0.5818 -0.1514
12859SOL    HW140018   0.745   1.206  11.526 -2.1140 -0.4672 -0.3663
12859SOL    HW240019   0.803   1.240  11.390  0.1580 -0.9475  0.4445
12860SOL     OW40020   6.866   6.394   6.983 -0.1853 -0.5032 -0.0896
12860SOL    HW140021   6.926   6.360   6.916 -0.8576  2.0119 -2.1460
12860SOL    HW240022   6.866   6.489   6.969 -0.8531  0.0877  3.1562
12861SOL     OW40023   5.869   4.348   5.039  0.0235 -0.1853  0.4159
12861SOL    HW140024   5.961   4.365   5.016  0.1062  0.5607  1.2427
12861SOL    HW240025   5.828   4.434   5.039 -0.9306 -0.6141 -0.9021
12862SOL     OW40026   0.927   7.566   8.076  0.6459  0.3152  0.0865
12862SOL    HW140027   0.857   7.584   8.014  0.6030  0.4713  0.1812
12862SOL    HW240028   0.946   7.650   8.117 -0.0413  0.0242  1.0398
12863SOL     OW40029   6.572   4.943  10.207 -0.3528 -0.4415 -0.1740
12863SOL    HW140030   6.582   5.013  10.143 -1.2838 -1.4986 -1.5344
12863SOL    HW240031   6.656   4.897  10.205 -0.3610 -0.4475 -0.6407
12864SOL     OW40032   1.005   0.863   0.146  0.8641 -0.1099 -0.0667
12864SOL    HW140033   0.941   0.869   0.218  1.1827 -1.9346  0.4301
12864SOL    HW240034   1.081   0.910   0.179  0.2928  0.8320 -0.0615
12865SOL     OW40035   3.176   5.817   6.129 -0.1221 -0.1525 -0.4088
12865SOL    HW140036   3.136   5.868   6.199  1.9069  1.1518 -0.1223
12865SOL    HW240037   3.128   5.842   6.050 -0.8983  0.1284  0.1340
12866SOL     OW40038   6.647   1.250   8.820  0.0941 -0.3687 -0.9299
12866SOL    HW140039   6.693   1.276   8.900  0.4801 -0.6907 -1.0469
12866SOL    HW240040   6.715   1.218   8.762 -0.2568 -0.6982 -1.1663
12867SOL     OW40041   4.943   3.223   7.583 -0.1129 -0.4061 -0.5607
12867SOL    HW140042   4.989   3.183   7.656 -0.6769  1.6565  1.0383
12867SOL    HW240043   4.865   3.169   7.570  0.1117 -0.9204  0.2095
12868SOL     OW40044   5.626   5.958   8.474  0.0556  0.6640  0.5192
12868SOL    HW140045   5.591   5.919   8.394 -0.6280  1.0613  0.6100
12868SOL    HW240046   5.621   6.052   8.459  2.2940  0.7542  0.0379
12869SOL     OW40047   7.734   2.790  12.085  0.0595  0.4850 -0.6168
12869SOL    HW140048   7.781   2.711  12.059 -0.5647 -0.0692 -0.0588
12869SOL    HW240049   7.774   2.859  12.032  3.1890  0.4793  1.4632
12870SOL     OW40050   3.432   5.377   1.032 -0.6305  0.3015 -0.1725
12870SOL    HW140051   3.427   5.326   0.951 -0.1008  2.8935 -1.9883
12870SOL    HW240052   3.341   5.402   1.050 -0.5542  1.3770 -1.1705
12871SOL     OW40053   2.896   7.364   0.993 -0.2263  0.4558 -0.2274
12871SOL    HW140054   2.969   7.425   0.997 -0.5020  0.7377  1.2847
12871SOL    HW240055   2.912   7.312   0.915  1.7659  0.2975  0.2249
12872SOL     OW40056   7.963   1.492   7.416  0.0673 -0.8727  0.2131
12872SOL    HW140057   7.991   1.580   7.391 -1.5955 -0.2168  0.5544
12872SOL    HW240058   7.884   1.476   7.365  0.2886 -2.1426  0.2303
12873SOL     OW40059   3.451   3.714   5.320 -0.4201 -0.5142  0.1135
12873SOL    HW140060   3.364   3.751   5.306  0.1865  1.2471  0.7188
12873SOL    HW240061   3.490   3.709   5.233 -0.9878 -1.0413 -0.1255
12874SOL     OW40062   4.297   5.887   1.104 -0.0870  0.1112  0.2994
12874SOL    HW140063   4.299   5.981   1.087  1.0145  0.7414  3.3662
12874SOL    HW240064   4.205   5.867   1.122 -0.6014  0.1914 -1.9477
12875SOL     OW40065   2.522   6.917   5.420 -0.4495 -0.2844  0.4468
12875SOL    HW140066   2.492   6.852   5.357  0.4986 -0.9349  0.6440
12875SOL    HW240067   2.537   6.867   5.500  1.3520 -0.0497  0.2914
12876SOL     OW40068   1.844   1.260   7.725 -0.3938 -0.5220 -0.2993
12876SOL    HW140069   1.802   1.200   7.664  0.8770 -1.6778 -0.0932
12876SOL    HW240070   1.788   1.337   7.725 -0.9259 -0.8527 -2.2067
12877SOL     OW40071   5.459   1.607   9.719  0.3283  0.6151  0.2057
12877SOL    HW140072   5.541   1.636   9.679  0.5353 -0.1040  0.0947
12877SOL    HW240073   5.406   1.686   9.724  1.1912  1.1862  0.6846
12878SOL     OW40074   0.656   3.254   1.217 -0.8448  0.3504 -0.3101
12878SOL    HW140075   0.566   3.244   1.187 -0.8795 -1.1609  0.2420
12878SOL    HW240076   0.699   3.172   1.193  0.5092  1.1799 -0.9057
12879SOL     OW40077   0.828   2.034   1.752 -0.2651 -0.1873  0.1716
12879SOL    HW140078   0.793   2.016   1.839 -1.1705  0.0622 -0.1342
12879SOL    HW240079   0.903   1.974   1.744 -1.8018 -2.1987  0.0760
12880SOL     OW40080   4.770   6.266   5.178 -0.1974  0.0536  0.2869
12880SOL    HW140081   4.719   6.185   5.177  0.2401 -0.2385  0.9527
12880SOL    HW240082   4.704   6.335   5.171 -0.7146 -0.3217  1.2596
12881SOL     OW40083   7.633   5.656   7.253 -0.0470 -0.3736 -0.5025
12881SOL    HW140084   7.630   5.624   7.343  0.4538  1.2047  0.0975
12881SOL    HW240085   7.547   5.695   7.238  0.2334  0.3190 -0.3345
12882SOL     OW40086   2.726   5.580   8.365  0.1150  0.7354  0.1382
12882SOL    HW140087   2.806   5.590   8.313  0.0458 -0.7074 -0.2780
12882SOL    HW240088   2.656   5.605   8.305  0.1982  1.4609  0.3305
12883SOL     OW40089   0.261   7.926   0.616  1.2148  0.1363  0.0050
12883SOL    HW140090   0.305   7.928   0.700  0.6022 -1.2032  0.3774
12883SOL    HW240091   0.201   8.002   0.619  0.3080 -0.5925  1.2908
12884SOL     OW40092   5.732   7.323   9.028  0.0705  0.1828  0.5034
12884SOL    HW140093   5.734   7.404   8.979  0.3529 -0.6658 -0.9521
12884SOL    HW240094   5.726   7.254   8.962 -0.1348 -0.9930  1.6825
12885SOL     OW40095   7.068   0.353   6.035  0.0781 -0.5527 -0.2704
12885SOL    HW140096   6.988   0.301   6.046  0.2151 -0.6874  0.1089
12885SOL    HW240097   7.076   0.365   5.940  0.0390 -1.2148 -0.3648
12886SOL     OW40098   5.067   1.980   5.810 -0.5367  0.5585 -0.0554
12886SOL    HW140099   5.095   1.902   5.857  0.0943  0.9457  0.2293
12886SOL    HW240100   4.980   1.958   5.776 -0.7211  0.0440  0.7289
12887SOL     OW40101   7.444   5.518   2.988 -0.2151 -0.0452 -0.1583
12887SOL    HW140102   7.361   5.514   2.941  0.1569  1.4722 -1.0318
12887SOL    HW240103   7.428   5.474   3.072 -1.5339 -0.8267 -0.8061
12888SOL     OW40104   4.594   5.901  10.729 -0.6149 -0.6218 -0.4996
12888SOL    HW140105   4.598   5.852  10.646  0.4457 -0.0195 -0.8290
12888SOL    HW240106   4.608   5.834  10.796  1.4295 -0.7425 -0.9726
12889SOL     OW40107   7.240   6.707  12.005  0.2994  0.5006 -0.1667
12889SOL    HW140108   7.270   6.623  12.041 -2.4251 -1.1135 -1.3397
12889SOL    HW240109   7.290   6.718  11.924  0.5254 -0.0853 -0.1107
12890SOL     OW40110   7.553   2.337   7.616 -0.4068  0.5173  0.1241
12890SOL    HW140111   7.631   2.343   7.561  0.1851  1.6158  1.0356
12890SOL    HW240112   7.503   2.264   7.580  2.2063 -1.8453  1.0039
12891SOL     OW40113   5.552   2.903   0.153  0.6484  0.5675  0.4931
12891SOL    HW140114   5.479   2.941   0.201  0.4788  1.7458 -0.6559
12891SOL    HW240115   5.630   2.929   0.203  0.4150  0.8822  0.6985
12892SOL     OW40116   5.804   3.500   5.150  0.2871  1.0387 -0.1318
12892SOL    HW140117   5.807   3.590   5.182 -0.7735  0.6566  1.1107
12892SOL    HW240118   5.890   3.464   5.172 -0.1341  1.0300  1.6635
12893SOL     OW40119   6.426   4.785   7.994 -0.2487  0.1629  0.0568
12893SOL    HW140120   6.438   4.691   7.979 -0.9652  0.2567 -1.2220
12893SOL    HW240121   6.377   4.790   8.077 -0.1187 -0.5835  0.1845
12894SOL     OW40122   0.022   6.482   4.506 -0.1590 -0.3188 -0.0030
12894SOL    HW140123  -0.030   6.549   4.462 -0.1794  0.9819  1.9086
12894SOL    HW240124   0.026   6.410   4.443 -0.7475  1.1689 -1.8314
12895SOL     OW40125   6.514   6.616   7.771  0.9218  0.1227  0.4423
12895SOL    HW140126   6.596   6.665   7.770  0.7977  0.3693  1.3389
12895SOL    HW240127   6.533   6.536   7.722  1.3288  0.7480 -0.4457
12896SOL     OW40128   5.385   5.561  10.544  0.9334 -0.1114  0.4448
12896SOL    HW140129   5.366   5.592  10.456  1.8981  1.1576  0.6472
12896SOL    HW240130   5.369   5.467  10.541  0.7493 -0.0499 -1.0252
12897SOL     OW40131   0.007   7.626  11.949 -0.3614 -0.1583  0.0800
12897SOL    HW140132  -0.080   7.602  11.917 -1.9206  1.5244  2.6640
12897SOL    HW240133   0.007   7.721  11.949  1.0011 -0.1263  1.2443
12898SOL     OW40134   7.588   3.334   4.487  0.2293  0.5133 -0.2859
12898SOL    HW140135   7.624   3.419   4.464 -1.0882  0.8107 -1.3997
12898SOL    HW240136   7.650   3.271   4.450  1.5687  0.9593  1.1359
12899SOL     OW40137   3.318   5.623   4.552 -0.0012  0.1135 -0.1491
12899SOL    HW140138   3.223   5.630   4.561 -0.2091 -2.2587  0.0703
12899SOL    HW240139   3.331   5.566   4.477  1.1296 -1.7592  1.3624
12900SOL     OW40140   6.139   3.194   0.119  0.0179  0.0746 -0.0718
12900SOL    HW140141   6.214   3.253   0.133 -0.1951  0.7283 -1.4526
12900SOL    HW240142   6.178   3.107   0.116  0.5906  0.3090  0.2084
12901SOL     OW40143   5.907   5.184   2.676  0.1050 -0.1311  0.3717
12901SOL    HW140144   5.873   5.174   2.765 -1.6667  0.0925 -0.2432
12901SOL    HW240145   5.847   5.246   2.634  0.0141 -1.3441 -1.4170
12902SOL     OW40146   2.154   5.031   4.186  0.1972 -0.2649  0.1682
12902SOL    HW140147   2.246   5.005   4.197  0.5301  1.5206  2.5298
12902SOL    HW240148   2.157   5.109   4.132 -0.3084 -1.8866 -2.3689
12903SOL     OW40149   7.667   1.826   8.247  0.1240  0.4654 -0.6354
12903SOL    HW140150   7.581   1.855   8.278  0.8249  2.4752 -0.4260
12903SOL    HW240151   7.727   1.849   8.318  1.0314  0.3549 -1.3518
12904SOL     OW40152   2.948   6.851  12.183  0.0396 -0.1718 -0.0061
12904SOL    HW140153   2.862   6.866  12.144 -1.3052 -0.8017  2.5035
12904SOL    HW240154   2.975   6.766  12.147  0.1534  0.5150 -1.6314
12905SOL     OW40155   6.230   1.177   4.793  0.0540 -0.4744 -0.8427
12905SOL    HW140156   6.211   1.083   4.788  1.6173 -0.8719  0.1610
12905SOL    HW240157   6.301   1.184   4.856 -0.8035  1.5142 -0.0193
12906SOL     OW40158   6.828   2.183  10.848  0.0055 -0.0959  0.3306
12906SOL    HW140159   6.772   2.201  10.773 -0.2343 -0.5629  0.3946
12906SOL    HW240160   6.903   2.136  10.812 -0.3117 -0.7000  0.4306
12907SOL     OW40161   2.998   1.763   4.618  0.2359 -0.0185 -0.2869
12907SOL    HW140162   3.063   1.694   4.606 -1.3785 -1.7814  0.5092
12907SOL    HW240163   3.041   1.842   4.587  3.0468 -0.9284  0.9940
12908SOL     OW40164   0.788   2.054   2.264 -0.2431 -0.1445  0.5144
12908SOL    HW140165   0.876   2.018   2.252  0.3120  1.5768 -1.2681
12908SOL    HW240166   0.783   2.073   2.358  1.5056  0.1546  0.5987
12909SOL     OW40167   1.182   1.426   5.302  0.1392 -0.5019 -0.0535
12909SOL    HW140168   1.091   1.424   5.271  0.7747 -0.3694 -2.0959
12909SOL    HW240169   1.196   1.340   5.341 -1.1494 -0.1514  1.3011
12910SOL     OW40170   6.975   5.877   5.155 -0.0866  0.1188  0.7128
12910SOL    HW140171   6.955   5.786   5.178 -0.0521  0.4902  2.3189
12910SOL    HW240172   7.044   5.902   5.216  1.5234  0.5508 -1.1771
12911SOL     OW40173   3.846   7.722   9.339  0.2511  0.1625  0.1213
12911SOL    HW140174   3.896   7.640   9.337  1.1509  0.6951 -0.1298
12911SOL    HW240175   3.891   7.775   9.404 -0.5612  0.3245  0.5572
12912SOL     OW40176   4.261   3.681   8.995  0.3784 -0.2073 -0.2193
12912SOL    HW140177   4.317   3.633   8.933 -0.4460 -0.2570 -0.9393
12912SOL    HW240178   4.172   3.665   8.964  0.0804  2.4002 -0.9480
12913SOL     OW40179   2.576   6.059  11.099  0.1729  0.2543  0.2496
12913SOL    HW140180   2.572   5.994  11.029  0.2392  0.5476 -0.0313
12913SOL    HW240181   2.656   6.038  11.148  0.4639  0.4264 -0.1434
12914SOL     OW40182   5.868   2.978  12.058  0.2505  0.8205 -0.1478
12914SOL    HW140183   5.854   3.069  12.031  1.2428  0.9739 -0.1728
12914SOL    HW240184   5.924   2.941  11.989 -0.6614  0.0017 -0.4695
12915SOL     OW40185   7.134   6.813   3.384 -0.3701 -0.4862  0.7165
12915SOL    HW140186   7.138   6.725   3.421 -1.6408 -0.8199  0.1336
12915SOL    HW240187   7.053   6.813   3.332  0.9413  0.2094 -1.4354
12916SOL     OW40188   2.466   0.210   7.733  0.0617 -0.1741  0.1961
12916SOL    HW140189   2.373   0.219   7.749  0.2059  0.3180  0.7677
12916SOL    HW240190   2.472   0.146   7.662 -0.8280  1.6080 -1.5944
12917SOL     OW40191   5.253   7.383   5.043  0.2904  0.3728 -0.5500
12917SOL    HW140192   5.263   7.446   4.971 -1.5728  1.2019 -0.1412
12917SOL    HW240193   5.169   7.340   5.025  0.3232 -0.1616  0.5502
12918SOL     OW40194   5.705   7.942   2.031 -0.0552 -0.4242 -0.2094
12918SOL    HW140195   5.760   8.019   2.018 -0.5525 -0.0760 -0.2787
12918SOL    HW240196   5.620   7.978   2.057  0.1828 -0.9938  1.5127
12919SOL     OW40197   3.116   1.248   2.690  0.4258  0.1941 -0.2161
12919SOL    HW140198   3.205   1.282   2.700  0.6331 -0.3975 -0.0044
12919SOL    HW240199   3.072   1.313   2.636  1.0002  0.4738 -0.3633
12920SOL     OW40200   3.418   3.460   0.407  0.2477 -0.1514 -0.4195
12920SOL    HW140201   3.504   3.431   0.375  1.3333  0.3633  1.8176
12920SOL    HW240202   3.370   3.380   0.424  1.4903 -0.5868  1.2688
12921SOL     OW40203   1.051   5.892   3.045  0.4661  0.1157 -0.3505
12921SOL    HW140204   0.974   5.912   3.099 -0.9668 -0.8840 -1.9157
12921SOL    HW240205   1.086   5.977   3.020  0.4342  0.5859  1.1338
12922SOL     OW40206   1.458   3.814  10.891 -0.2127 -0.3141  0.0811
12922SOL    HW140207   1.530   3.824  10.828  0.2940 -0.3778  0.6373
12922SOL    HW240208   1.495   3.760  10.961  0.0610  1.7239  1.6260
12923SOL     OW40209   6.289   5.310   1.347 -0.0313  0.4219 -0.7086
12923SOL    HW140210   6.226   5.373   1.313  0.3250  1.4191  0.4255
12923SOL    HW240211   6.243   5.264   1.416  0.7348  1.8401  0.8086
12924SOL     OW40212   1.484   4.919   4.703  0.0711 -0.4430 -0.0256
12924SOL    HW140213   1.465   4.826   4.715 -0.0144 -0.2675  1.4256
12924SOL    HW240214   1.580   4.924   4.703  0.0926 -0.4139  1.2539
12925SOL     OW40215   1.223   3.063   0.761  0.0491 -0.2836 -0.0023
12925SOL    HW140216   1.155   2.997   0.745 -1.0649  0.9186 -0.3352
12925SOL    HW240217   1.297   3.012   0.794 -1.5885 -1.4451  2.1292
12926SOL     OW40218   6.879   7.291   6.237  0.1664 -0.3466 -0.1125
12926SOL    HW140219   6.820   7.219   6.214  0.0490  0.4768 -2.7364
12926SOL    HW240220   6.928   7.308   6.157 -0.4306  3.0337  0.0875
12927SOL     OW40221   5.590   1.988   2.078  0.2379  0.0215  0.6280
12927SOL    HW140222   5.542   2.037   2.011 -0.5875  2.9702  3.1333
12927SOL    HW240223   5.602   1.901   2.040 -1.2043  1.1275 -2.8023
12928SOL     OW40224   1.645   7.268   2.593 -0.3678 -0.1603 -0.5240
12928SOL    HW140225   1.561   7.266   2.548  0.1322  0.4855 -1.5263
12928SOL    HW240226   1.658   7.359   2.617 -0.2758 -0.3729  0.2782
12929SOL     OW40227   1.566   5.342   0.726  0.3381  0.4481 -0.0772
12929SOL    HW140228   1.519   5.344   0.643 -0.0977 -1.2231  0.0910
12929SOL    HW240229   1.599   5.431   0.738  0.3841  0.7211 -2.0120
12930SOL     OW40230   5.264   1.884  11.186  0.1814  0.3396 -0.0129
12930SOL    HW140231   5.357   1.874  11.167  0.1729  0.8443 -0.3608
12930SOL    HW240232   5.243   1.973  11.156 -0.3657  0.3026  0.2437
12931SOL     OW40233   4.452   0.229   5.331 -0.0491  0.0483 -0.2537
12931SOL    HW140234   4.504   0.176   5.271  0.0238 -0.1279 -0.0345
12931SOL    HW240235   4.391   0.167   5.371  1.0012 -0.1438  1.0891
12932SOL     OW40236   3.102   7.708   8.007  0.1812 -0.5724  0.0939
12932SOL    HW140237   3.027   7.649   8.008 -0.3409  0.0693 -0.5138
12932SOL    HW240238   3.095   7.755   7.924 -1.6646  3.1959  2.1494
12933SOL     OW40239   7.323   1.877   3.523  0.3508 -0.3412  0.1755
12933SOL    HW140240   7.291   1.961   3.491 -1.2535 -0.0287  2.3585
12933SOL    HW240241   7.273   1.812   3.475 -1.3176  0.0827  1.2723
12934SOL     OW40242   6.864   5.818   0.157 -0.1711 -0.5196  0.3382
12934SOL    HW140243   6.923   5.818   0.233  0.7814 -1.7382 -0.3445
12934SOL    HW240244   6.785   5.775   0.188  0.3610 -1.3686  0.5573
12935SOL     OW40245   0.151   6.319   0.667  0.1746 -0.4324 -0.1498
12935SOL    HW140246   0.079   6.262   0.639 -0.6474  1.0961 -1.2805
12935SOL    HW240247   0.173   6.288   0.755 -2.5782 -0.2902  0.6584
12936SOL     OW40248   4.471   5.819   4.397  0.3544  0.0601  0.0999
12936SOL    HW140249   4.411   5.884   4.435  3.5185  2.8857  0.7193
12936SOL    HW240250   4.465   5.836   4.302 -0.2717 -0.1436  0.0947
12937SOL     OW40251   6.435   2.846  10.549 -0.1471 -0.1301  0.2211
12937SOL    HW140252   6.417   2.891  10.632 -1.6584  0.9550 -0.6540
12937SOL    HW240253   6.528   2.823  10.554  0.3718  1.9739  1.2493
12938SOL     OW40254   6.935   4.133   7.502 -0.1785 -0.5149 -0.4386
12938SOL    HW140255   6.853   4.127   7.454 -0.7069 -0.8325  0.4773
12938SOL    HW240256   6.994   4.182   7.444 -1.9082  2.3969  0.1078
12939SOL     OW40257   5.744   2.784   4.917 -0.0214  0.6240 -0.3870
12939SOL    HW140258   5.737   2.776   4.821  1.9983  0.6456 -0.5773
12939SOL    HW240259   5.750   2.694   4.948  0.2334  0.6444 -0.3742
12940SOL     OW40260   1.022   3.381   7.454 -0.0481 -0.5364  0.4507
12940SOL    HW140261   1.028   3.326   7.376  0.7950  0.5769 -0.2903
12940SOL    HW240262   0.931   3.372   7.482 -0.6294 -0.2155 -1.2252
12941SOL     OW40263   6.661   0.466  12.427 -0.4292  0.3129 -0.1549
12941SOL    HW140264   6.718   0.417  12.368 -1.2181 -1.6365  0.6102
12941SOL    HW240265   6.642   0.405  12.499 -3.0223  1.0261 -0.1185
12942SOL     OW40266   4.420   1.993   5.601  0.6348  0.1415 -0.0187
12942SOL    HW140267   4.514   1.998   5.583  0.4500  0.8210 -0.7967
12942SOL    HW240268   4.379   1.979   5.516  0.0961 -1.3062  0.4378
12943SOL     OW40269   0.128   2.250   8.876  0.4131 -0.5661 -0.2771
12943SOL    HW140270   0.054   2.298   8.912  0.8017 -0.8455  0.9290
12943SOL    HW240271   0.205   2.298   8.907  0.8381 -2.2423  1.4540
12944SOL     OW40272   1.656   0.394   4.132  0.0291 -0.4229  0.2692
12944SOL    HW140273   1.720   0.459   4.161  1.1263 -0.9655 -0.8427
12944SOL    HW240274   1.652   0.405   4.037 -2.0582  0.0393  0.3642
12945SOL     OW40275   4.948   1.957   0.754 -0.3075  0.7128  0.0695
12945SOL    HW140276   5.008   1.893   0.716 -0.3970  0.2032  0.7659
12945SOL    HW240277   4.934   2.022   0.684  0.3936  0.3935 -0.3759
12946SOL     OW40278   3.133   1.868   1.649 -0.1902  0.1732 -0.0953
12946SOL    HW140279   3.093   1.831   1.728 -1.0463  1.3985  0.0720
12946SOL    HW240280   3.195   1.801   1.620 -1.1083 -1.0328  0.6302
12947SOL     OW40281   6.981   0.799   7.369 -0.5317  0.2703 -0.1018
12947SOL    HW140282   6.978   0.710   7.404 -0.0846  0.4574  0.4187
12947SOL    HW240283   6.896   0.811   7.328 -0.1459 -0.8618 -1.3162
12948SOL     OW40284   4.166   0.567  11.404 -0.1270 -0.2565  0.6697
12948SOL    HW140285   4.108   0.571  11.328 -0.3794 -4.0786  0.4510
12948SOL    HW240286   4.113   0.601  11.476 -0.9275  0.6684 -0.3068
12949SOL     OW40287   1.716   0.882   4.810  0.1577  0.2951  0.3451
12949SOL    HW140288   1.630   0.879   4.852  0.6116  0.4868  1.3312
12949SOL    HW240289   1.749   0.792   4.817  0.3024  0.3628  0.5697
12950SOL     OW40290   0.874   4.489   2.776 -0.1269  0.0580 -0.0350
12950SOL    HW140291   0.914   4.458   2.695 -1.0625 -1.8017  0.1565
12950SOL    HW240292   0.947   4.513   2.832  0.5577  0.4120 -1.0591
12951SOL     OW40293   6.334   1.270  10.080  0.3510  0.2922 -0.0367
12951SOL    HW140294   6.281   1.339  10.119 -3.1337 -1.5238 -1.1276
12951SOL    HW240295   6.357   1.303   9.993 -1.9887 -0.0816 -0.8741
12952SOL     OW40296   6.168   2.042   4.161 -0.4936 -0.3735  0.1861
12952SOL    HW140297   6.083   1.998   4.159 -0.5686 -0.2710  0.8193
12952SOL    HW240298   6.146   2.135   4.160 -0.3338 -0.3305 -1.2002
12953SOL     OW40299   0.317   5.761   9.388  0.1153  0.1237 -0.2288
12953SOL    HW140300   0.368   5.824   9.337  2.5480 -0.6654  1.1187
12953SOL    HW240301   0.362   5.678   9.377 -1.6084 -0.9114  0.0581
12954SOL     OW40302   6.681   2.408   9.224  0.2977  0.0985 -0.2755
12954SOL    HW140303   6.629   2.410   9.144  2.3788 -0.1285 -1.7104
12954SOL    HW240304   6.766   2.374   9.196  2.0675  2.7923  1.4530
12955SOL     OW40305   5.268   4.109  11.369  0.1990  0.3612 -0.1035
12955SOL    HW140306   5.181   4.148  11.363 -0.4264 -0.5019  2.2737
12955SOL    HW240307   5.256   4.018  11.343  0.2938  0.1330  0.6295
12956SOL     OW40308   4.842   3.627   3.526  0.7214 -0.3317 -0.1496
12956SOL    HW140309   4.777   3.656   3.461  1.0974 -0.5465 -0.6278
12956SOL    HW240310   4.836   3.532   3.524  1.6422 -0.3840 -0.8139
12957SOL     OW40311   7.845   2.715   5.377  0.3643  0.4892 -0.1211
12957SOL    HW140312   7.767   2.770   5.379  0.0384  0.0848 -1.2687
12957SOL    HW240313   7.918   2.777   5.375  0.3652  0.9987  4.7123
12958SOL     OW40314   7.264   2.554   7.903 -0.2921 -0.4509  0.4540
12958SOL    HW140315   7.301   2.475   7.864  0.7331 -0.2962  1.0582
12958SOL    HW240316   7.171   2.534   7.915 -0.5344 -0.7013 -1.4962
12959SOL     OW40317   3.001   0.584   8.587  0.0910  0.0557 -1.1564
12959SOL    HW140318   2.968   0.588   8.497  0.3748 -1.4645 -1.3606
12959SOL    HW240319   3.004   0.490   8.607  2.9738  0.1637 -0.6835
12960SOL     OW40320   6.068   7.159   9.821  0.0578  0.0582  0.0375
12960SOL    HW140321   6.162   7.179   9.823  0.4605 -1.7340  1.4376
12960SOL    HW240322   6.046   7.140   9.912 -1.5600 -0.0550 -0.3553
12961SOL     OW40323   5.145   4.886   6.783  0.0702  0.1709  0.1042
12961SOL    HW140324   5.225   4.939   6.793  1.3519 -1.4132 -1.1657
12961SOL    HW240325   5.093   4.933   6.718 -0.3190  1.4752  1.2949
12962SOL     OW40326   0.829   1.493  12.010  0.1071 -0.2380 -0.1228
12962SOL    HW140327   0.788   1.449  11.936  0.7885  0.8505 -1.1803
12962SOL    HW240328   0.756   1.514  12.069 -0.9426  1.7553 -2.0045
12963SOL     OW40329   6.755   1.421   7.279 -0.1304 -0.3530  0.3600
12963SOL    HW140330   6.835   1.421   7.332  0.0141 -2.5833  0.2299
12963SOL    HW240331   6.738   1.514   7.261  0.2943  0.4743  3.5741
12964SOL     OW40332   5.069   4.587   2.752  0.5647 -0.5098  0.3162
12964SOL    HW140333   4.982   4.628   2.752  0.3196 -1.0219  0.6079
12964SOL    HW240334   5.052   4.496   2.774  1.2655 -0.4306  1.2430
12965SOL     OW40335   2.773   2.936   1.819 -0.4346 -0.4694  0.1713
12965SOL    HW140336   2.834   2.990   1.768 -0.9734  0.7970  0.8403
12965SOL    HW240337   2.717   2.999   1.865 -1.4679 -1.6034  0.5156
12966SOL     OW40338   6.664   0.282   7.449 -0.0661 -0.1188 -0.6637
12966SOL    HW140339   6.574   0.303   7.474  0.2599 -1.0346  1.4902
12966SOL    HW240340   6.657   0.252   7.358 -1.7725  0.7575 -0.8664
12967SOL     OW40341   0.055   6.435   1.753 -0.0244  0.9274 -0.5203
12967SOL    HW140342  -0.028   6.394   1.728  1.4503 -2.8451  0.1178
12967SOL    HW240343   0.079   6.488   1.677 -0.9698 -1.4279 -2.6271
12968SOL     OW40344   7.328   1.533  11.058  0.0184 -0.3853 -0.7651
12968SOL    HW140345   7.269   1.512  11.130  1.9785  1.7899  1.6914
12968SOL    HW240346   7.279   1.593  11.002 -0.2806  1.2246  1.1162
12969SOL     OW40347   6.237   1.018   6.835  0.5815 -0.0483 -0.3795
12969SOL    HW140348   6.301   1.089   6.832  0.5140  0.0583  0.4376
12969SOL    HW240349   6.188   1.033   6.916 -2.0149  1.2089 -2.0259
12970SOL     OW40350   1.268   3.799   5.777  0.7292 -0.4084 -0.3740
12970SOL    HW140351   1.189   3.745   5.781  1.1317 -0.9422  1.6058
12970SOL    HW240352   1.250   3.863   5.708 -2.4238  0.9838  1.4965
12971SOL     OW40353   6.505   6.202   2.104 -0.8933  0.2260  0.6647
12971SOL    HW140354   6.443   6.130   2.115  0.2629 -0.9607 -0.2782
12971SOL    HW240355   6.588   6.159   2.084 -0.4290  1.8339 -1.1469
12972SOL     OW40356   5.640   1.901   0.501  0.2874  0.3109 -0.3949
12972SOL    HW140357   5.691   1.962   0.554 -1.4805  1.7212 -0.2404
12972SOL    HW240358   5.655   1.930   0.411 -0.8413  1.2700 -0.3010
12973SOL     OW40359   1.956   4.855   9.412  0.3423 -0.2959 -0.0115
12973SOL    HW140360   2.045   4.890   9.404 -0.1733  1.0558 -0.1258
12973SOL    HW240361   1.931   4.832   9.323  0.7924 -1.3166  0.1011
12974SOL     OW40362   4.064   4.457   6.138  0.0025  0.2110  0.3187
12974SOL    HW140363   4.116   4.516   6.193  0.5468 -0.0591  0.1022
12974SOL    HW240364   3.978   4.455   6.179  0.2762  0.3641  0.9019
12975SOL     OW40365   0.031   2.542   8.377  0.0639 -0.9499  0.4747
12975SOL    HW140366   0.030   2.449   8.398 -0.8602 -0.8942  0.7325
12975SOL    HW240367  -0.061   2.568   8.379  0.2591 -0.1532 -0.1555
12976SOL     OW40368   4.210   3.891   2.377  0.6289  0.1826  0.2120
12976SOL    HW140369   4.122   3.854   2.373  0.9661 -0.5433 -1.6045
12976SOL    HW240370   4.197   3.985   2.379 -0.2090  0.0823 -0.1556
12977SOL     OW40371   1.653   6.636   5.793 -0.5488 -0.3753  0.7060
12977SOL    HW140372   1.721   6.576   5.762  1.2464  1.4108  0.9768
12977SOL    HW240373   1.700   6.700   5.847 -1.7944  2.9947 -1.8828
12978SOL     OW40374   2.224   2.207   4.993 -0.1654 -0.1711  0.1519
12978SOL    HW140375   2.200   2.191   4.901 -2.7936  3.5238 -0.0302
12978SOL    HW240376   2.312   2.244   4.988  0.9690 -2.6900 -0.4431
12979SOL     OW40377   7.953   2.181   7.271  0.3176  0.4808 -0.3377
12979SOL    HW140378   7.981   2.272   7.261 -0.3574  0.6570 -0.6695
12979SOL    HW240379   8.001   2.134   7.203  0.2014  0.6922 -0.5672
12980SOL     OW40380   7.912   0.775   0.811  0.2268 -0.4152  0.0165
12980SOL    HW140381   7.994   0.822   0.825  0.0361  0.3294 -1.1883
12980SOL    HW240382   7.850   0.813   0.874 -0.3080  2.0049 -1.8040
12981SOL     OW40383   0.668   3.659   7.279  0.1126 -0.0860 -0.2255
12981SOL    HW140384   0.706   3.709   7.352  0.1104 -1.7570  0.9975
12981SOL    HW240385   0.649   3.724   7.212  2.9606  1.1524  0.0080
12982SOL     OW40386   4.822   0.798  10.541 -0.1115 -0.3476  0.1729
12982SOL    HW140387   4.860   0.766  10.459  2.0600  4.7786 -1.2018
12982SOL    HW240388   4.898   0.813  10.597 -1.5464 -3.8624  3.5378
12983SOL     OW40389   5.509   0.660   5.896  0.6483 -0.0768  0.3875
12983SOL    HW140390   5.522   0.640   5.803 -0.9697  0.6055 -0.0299
12983SOL    HW240391   5.450   0.736   5.896 -1.5320 -1.6397  1.9521
12984SOL     OW40392   3.416   7.851   8.189  0.2540  0.5165 -0.0323
12984SOL    HW140393   3.324   7.827   8.196  0.2797  0.1471 -0.7671
12984SOL    HW240394   3.463   7.774   8.221  0.3151  0.0686 -1.1249
12985SOL     OW40395   3.678   0.128   7.287  0.0927 -0.3844 -0.0156
12985SOL    HW140396   3.744   0.097   7.225 -0.1705 -1.3844  0.1881
12985SOL    HW240397   3.605   0.066   7.277 -0.4015  0.1081  0.4915
12986SOL     OW40398   5.823   7.967  10.909  0.0496 -0.2738 -0.3928
12986SOL    HW140399   5.771   8.042  10.938  0.5592  0.1748 -0.6351
12986SOL    HW240400   5.799   7.954  10.818  0.4478  0.0071 -0.5384
12987SOL     OW40401   5.336   5.063   5.897 -0.4354  0.2292  0.2708
12987SOL    HW140402   5.295   5.016   5.970 -2.0680 -0.2569 -0.9162
12987SOL    HW240403   5.314   5.155   5.912 -1.5654  0.0268 -0.0845
12988SOL     OW40404   0.685   1.578   1.054 -0.4529  0.2419  0.0875
12988SOL    HW140405   0.722   1.620   1.131 -1.0651  0.7325  0.1232
12988SOL    HW240406   0.759   1.566   0.995  0.0967 -0.5163  0.9111
12989SOL     OW40407   6.882   3.124   7.685  0.0561 -0.5891  0.0129
12989SOL    HW140408   6.895   3.209   7.727  0.9676 -1.6389  1.9967
12989SOL    HW240409   6.957   3.072   7.713 -0.5344 -2.0874 -1.0786
12990SOL     OW40410   5.678   1.910   6.154 -0.0393 -0.1639 -0.1019
12990SOL    HW140411   5.719   1.907   6.241  0.2890 -0.4447 -0.2662
12990SOL    HW240412   5.751   1.903   6.093 -0.2026  0.7357 -0.4133
12991SOL     OW40413   5.107   2.656  11.241  0.3502  0.1318 -0.9446
12991SOL    HW140414   5.085   2.658  11.148  0.5854  1.5484 -0.9920
12991SOL    HW240415   5.130   2.747  11.262  2.1909 -0.5108  0.0450
12992SOL     OW40416   6.502   7.857   8.258 -0.0567 -0.0479 -0.3200
12992SOL    HW140417   6.407   7.849   8.266 -0.1297 -0.0981 -1.1897
12992SOL    HW240418   6.516   7.949   8.234 -0.0224 -0.4295 -1.8899
12993SOL     OW40419   1.434   7.542   5.421 -0.3419  0.0393 -0.0174
12993SOL    HW140420   1.433   7.451   5.452 -1.8653  0.2906  0.8072
12993SOL    HW240421   1.452   7.593   5.500 -0.4449  0.4998 -0.2906
12994SOL     OW40422   1.850   5.904   1.810  0.4120  0.8115 -0.3637
12994SOL    HW140423   1.774   5.850   1.790  0.0431  0.4719  1.7479
12994SOL    HW240424   1.900   5.853   1.873  0.1668  2.7627  1.5471
12995SOL     OW40425   1.718   7.722  11.961  0.4336 -0.1935 -0.2295
12995SOL    HW140426   1.636   7.760  11.993  1.0601 -0.1640  1.4323
12995SOL    HW240427   1.703   7.627  11.964  0.5248 -0.1964  0.3084
12996SOL     OW40428   5.139   5.896   0.358  0.2720 -0.2797  0.3178
12996SOL    HW140429   5.146   5.983   0.317 -1.7576 -0.7243 -1.1032
12996SOL    HW240430   5.069   5.905   0.422 -2.3223 -1.5813 -2.1287
12997SOL     OW40431   5.138   5.752   2.284 -0.0486 -0.5511 -0.9326
12997SOL    HW140432   5.083   5.680   2.315 -0.5209 -0.1169 -0.7327
12997SOL    HW240433   5.201   5.711   2.225  0.0989 -1.2183 -0.3297
12998SOL     OW40434   6.136   5.032   7.998 -0.5713  0.1617 -0.4643
12998SOL    HW140435   6.043   5.023   7.978 -0.6244 -2.7653  0.5711
12998SOL    HW240436   6.162   4.945   8.029  2.3590  1.0800 -0.0577
12999SOL     OW40437   4.158   7.341   1.464  0.2327  0.3626 -0.5581
12999SOL    HW140438   4.180   7.332   1.557 -2.5993 -0.5852  0.1314
12999SOL    HW240439   4.132   7.433   1.454  0.7612  0.5247 -0.5016
13000SOL     OW40440   3.470   1.064   8.061 -0.5343 -0.3078  0.2478
13000SOL    HW140441   3.385   1.087   8.024 -0.2683  1.1024  0.4706
13000SOL    HW240442   3.518   1.026   7.987 -0.3864  1.4951 -0.6315
13001SOL     OW40443   3.940   6.993   2.159  0.2408  0.0797  0.0271
13001SOL    HW140444   3.921   7.037   2.077  0.0019  0.3769  0.2405
13001SOL    HW240445   3.937   7.062   2.225 -0.2462 -0.2743  0.3820
13002SOL     OW40446   0.605   0.023   8.510 -0.5569 -0.4790 -0.0980
13002SOL    HW140447   0.609   0.010   8.416 -1.8727  0.6005 -0.3341
13002SOL    HW240448   0.559  -0.054   8.543 -2.0608  0.1516 -0.6291
13003SOL     OW40449   6.350   2.476   4.960  0.0823  0.1978 -0.1454
13003SOL    HW140450   6.257   2.497   4.966 -0.2426 -1.1823  0.0258
13003SOL    HW240451   6.388   2.550   4.912 -1.0562  0.8744 -0.0539
13004SOL     OW40452   3.571   2.857   2.946  0.4775 -0.6545 -0.1870
13004SOL    HW140453   3.609   2.882   2.862  0.2773 -1.0839 -0.4080
13004SOL    HW240454   3.567   2.761   2.943  0.1685 -0.6548  0.1768
13005SOL     OW40455   1.531   6.517   8.911 -0.3586  0.0520 -0.0735
13005SOL    HW140456   1.579   6.586   8.955  0.7309 -0.5598 -0.2839
13005SOL    HW240457   1.582   6.498   8.833 -0.7389 -0.8618 -0.1122
13006SOL     OW40458   7.736   7.632  11.800  0.1977 -0.5795  0.0326
13006SOL    HW140459   7.675   7.559  11.805 -1.3811  0.5731 -1.0414
13006SOL    HW240460   7.695   7.701  11.853 -0.0692  0.5921 -1.6014
13007SOL     OW40461   0.891   2.273   2.575 -0.0924  0.6751  0.1201
13007SOL    HW140462   0.938   2.346   2.533 -2.0819  1.2838 -1.2026
13007SOL    HW240463   0.959   2.210   2.597  1.3608  1.5466 -1.6076
13008SOL     OW40464   2.285   0.181   3.456 -0.4808  0.3991 -0.0005
13008SOL    HW140465   2.262   0.148   3.369 -2.2996  1.2120  0.1135
13008SOL    HW240466   2.380   0.190   3.455 -0.2048 -2.0100 -1.0112
13009SOL     OW40467   1.232   2.589   1.871  0.0010 -0.3186 -0.0816
13009SOL    HW140468   1.200   2.609   1.783  2.2160  0.5088 -0.7618
13009SOL    HW240469   1.193   2.656   1.927 -0.0794  0.1912 -0.7387
13010SOL     OW40470   3.389   2.356  11.430  0.2623  0.0497 -0.1808
13010SOL    HW140471   3.353   2.354  11.519 -2.0468 -1.2664 -1.0552
13010SOL    HW240472   3.437   2.439  11.426 -0.7098  0.8055  1.8668
13011SOL     OW40473   4.601   5.213  10.934  0.5508  0.1778 -1.4250
13011SOL    HW140474   4.684   5.218  10.886  1.7363 -3.1350  0.0254
13011SOL    HW240475   4.620   5.253  11.018  0.8395 -0.9359 -0.9474
13012SOL     OW40476   5.197   2.125   0.832  0.4933 -0.1019 -0.6164
13012SOL    HW140477   5.291   2.138   0.848  0.6586  0.8517 -2.1001
13012SOL    HW240478   5.193   2.042   0.784  0.5555 -0.2393 -0.3862
13013SOL     OW40479   5.715   1.420   5.702 -0.2324 -0.1538  0.4492
13013SOL    HW140480   5.802   1.410   5.664 -0.6530  1.2529 -1.0099
13013SOL    HW240481   5.678   1.332   5.701  0.6560 -0.5387 -0.1927
13014SOL     OW40482   0.899   0.173   1.595  0.2530 -0.3003  0.4465
13014SOL    HW140483   0.973   0.125   1.632 -1.6276 -1.0395  3.6991
13014SOL    HW240484   0.832   0.106   1.580 -0.7556  0.6837  0.4210
13015SOL     OW40485   1.993   1.875   7.835 -0.5660  0.2330 -0.2371
13015SOL    HW140486   1.971   1.812   7.766 -0.7105  1.0557 -0.9674
13015SOL    HW240487   2.088   1.888   7.825 -0.5931  0.3793 -0.3053
13016SOL     OW40488   4.604   0.787  12.222 -0.4732  0.1999  0.0105
13016SOL    HW140489   4.578   0.702  12.257 -0.4396  0.3337  0.3611
13016SOL    HW240490   4.534   0.847  12.250  1.2268  1.0225  2.8509
13017SOL     OW40491   1.595   0.609   1.071  0.5046  0.1745 -0.3413
13017SOL    HW140492   1.549   0.525   1.065  1.4680 -0.3137 -1.2343
13017SOL    HW240493   1.682   0.591   1.037  1.9803  0.6369  2.8048
13018SOL     OW40494   1.451   5.293  11.235  0.3756 -0.3500  0.2097
13018SOL    HW140495   1.517   5.267  11.299 -1.1420  0.4581  2.2168
13018SOL    HW240496   1.371   5.250  11.265 -0.9555  2.1103  0.4253
13019SOL     OW40497   6.837   3.694  10.377 -0.0163 -0.5131  0.0873
13019SOL    HW140498   6.865   3.620  10.323 -0.0837 -0.2704 -0.2828
13019SOL    HW240499   6.798   3.756  10.315 -0.0477 -0.2094  0.4066
13020SOL     OW40500   0.497   2.030   3.455 -0.2030 -0.0915  0.0840
13020SOL    HW140501   0.506   2.022   3.360  2.8001  4.2006 -0.2844
13020SOL    HW240502   0.587   2.031   3.488 -1.0899  0.4234  2.7736
13021SOL     OW40503   1.258   6.529   6.591  0.6920  0.2361  0.0266
13021SOL    HW140504   1.311   6.490   6.521  0.0664 -1.0588  0.2348
13021SOL    HW240505   1.313   6.598   6.628  1.7632 -0.3117 -0.5058
13022SOL     OW40506   7.861   3.416   9.518  0.0998 -0.1360  0.0211
13022SOL    HW140507   7.943   3.381   9.552  0.7918 -0.9044 -2.2508
13022SOL    HW240508   7.837   3.485   9.579 -0.4287 -3.3086  3.8427
13023SOL     OW40509   6.012   1.189  10.527 -0.0432 -0.3734  0.1104
13023SOL    HW140510   6.088   1.134  10.510  0.6232  0.8532 -1.0566
13023SOL    HW240511   6.006   1.246  10.450  0.2797  2.3120  1.9547
13024SOL     OW40512   6.481   3.326   9.745 -0.5794 -0.0533 -1.0497
13024SOL    HW140513   6.564   3.365   9.773 -0.2534  0.0118 -2.0702
13024SOL    HW240514   6.419   3.399   9.746 -0.5895 -0.0592 -0.4874
13025SOL     OW40515   2.271   5.916   2.168 -0.3870 -0.6356  0.3119
13025SOL    HW140516   2.259   5.949   2.078 -1.4976 -2.0435 -0.0949
13025SOL    HW240517   2.363   5.892   2.173 -0.4500 -1.1361 -0.6766
13026SOL     OW40518   2.688   7.039   9.062 -0.2174 -0.0649  0.0233
13026SOL    HW140519   2.703   7.049   9.156 -1.1998 -0.9500  0.3061
13026SOL    HW240520   2.771   7.063   9.021  0.2248  0.3315  1.1147
13027SOL     OW40521   4.107   1.044  10.856  0.5984 -0.2388 -0.5871
13027SOL    HW140522   4.068   0.958  10.872  1.4446 -0.3342  1.1556
13027SOL    HW240523   4.040   1.106  10.885  1.0734 -0.3728  0.8255
13028SOL     OW40524   0.957   6.221   5.950 -0.1391  0.8047 -0.2231
13028SOL    HW140525   0.971   6.252   5.860  0.2096 -0.2884 -0.5580
13028SOL    HW240526   0.868   6.251   5.971 -0.7252  0.0218 -1.4010
13029SOL     OW40527   4.760   1.294  11.195  0.3750  0.0893 -0.1164
13029SOL    HW140528   4.821   1.246  11.138  0.3604 -0.0692  0.0024
13029SOL    HW240529   4.702   1.227  11.230 -0.3425  0.3344 -0.8133
13030SOL     OW40530   5.058   3.183   0.690  0.8522  0.5536 -0.0077
13030SOL    HW140531   5.094   3.222   0.611  0.3959  1.6958  0.3288
13030SOL    HW240532   5.054   3.255   0.753 -2.1431  0.5598 -0.0795
13031SOL     OW40533   1.577   6.373  10.402 -0.1895 -0.1528  0.3819
13031SOL    HW140534   1.520   6.329  10.339 -0.1981 -1.3299  1.1837
13031SOL    HW240535   1.657   6.320  10.402  0.8014  1.2597 -0.4521
13032SOL     OW40536   7.194   2.901   3.136 -0.3183  0.1328 -0.3840
13032SOL    HW140537   7.271   2.950   3.165 -1.8949  3.0045 -0.6834
13032SOL    HW240538   7.130   2.915   3.206 -1.6098  0.5348 -1.6165
13033SOL     OW40539   3.030   3.170   5.096  0.7800 -0.6964 -0.4774
13033SOL    HW140540   3.017   3.135   5.184 -2.6467  2.3571  0.4760
13033SOL    HW240541   3.118   3.206   5.097  1.4150 -2.1438  1.0833
13034SOL     OW40542   5.082   3.005   7.074  0.3931 -0.0322 -0.4650
13034SOL    HW140543   5.139   2.974   7.144 -0.5454 -0.1935  0.2436
13034SOL    HW240544   5.142   3.021   7.001  1.3539 -0.1345  0.2675
13035SOL     OW40545   7.579   5.280   2.129 -0.5862 -0.3592 -0.5951
13035SOL    HW140546   7.628   5.356   2.160  0.7777 -1.9312  1.3117
13035SOL    HW240547   7.622   5.256   2.047  1.1041 -0.9601  0.4169
13036SOL     OW40548   7.457   6.800   2.979 -0.3065 -0.1121 -0.6597
13036SOL    HW140549   7.434   6.826   3.068  1.6367  0.6165 -0.3390
13036SOL    HW240550   7.384   6.743   2.951 -0.6404 -0.8811  1.6018
13037SOL     OW40551   1.718   5.057   6.220  0.3450 -0.1756  0.2525
13037SOL    HW140552   1.738   5.033   6.129 -2.1305 -0.8727 -0.1876
13037SOL    HW240553   1.694   4.975   6.262  0.0113  0.3543  1.1180
13038SOL     OW40554   7.217   6.570   1.254 -1.0541  0.3061 -0.0141
13038SOL    HW140555   7.175   6.602   1.333  0.2622 -0.7565  1.1813
13038SOL    HW240556   7.155   6.505   1.219  0.0954 -2.4460  2.6085
13039SOL     OW40557   5.603   5.160  10.455 -0.8650  0.4274 -0.5152
13039SOL    HW140558   5.693   5.194  10.450 -1.1472  1.3662  0.3495
13039SOL    HW240559   5.609   5.084  10.514 -0.8121  1.2148  0.5298
13040SOL     OW40560   6.517   4.605   7.488  0.4888  0.3449 -0.5799
13040SOL    HW140561   6.588   4.583   7.427 -1.6369 -2.3278 -2.3155
13040SOL    HW240562   6.468   4.674   7.443  0.8514  0.7722 -0.3186
13041SOL     OW40563   2.844   5.707   4.893  0.0263 -0.2872 -0.3800
13041SOL    HW140564   2.877   5.623   4.860  1.8661  0.5413 -0.7422
13041SOL    HW240565   2.917   5.745   4.941 -1.1115  0.6744  0.6781
13042SOL     OW40566   4.626   2.124  12.151 -0.2811  0.3379 -0.3318
13042SOL    HW140567   4.709   2.140  12.197  0.1692  1.8354 -1.5597
13042SOL    HW240568   4.600   2.211  12.120  0.1421 -0.6958 -3.9713
13043SOL     OW40569   2.964   6.156   1.254 -0.0472  0.4873  0.2764
13043SOL    HW140570   2.986   6.097   1.326 -2.4185 -0.9706 -0.1051
13043SOL    HW240571   3.007   6.118   1.178 -1.0994 -0.4557  0.1406
13044SOL     OW40572   3.089   2.765   7.098 -0.2013 -0.2020  0.5359
13044SOL    HW140573   3.106   2.671   7.098 -0.1589 -0.2027  1.5633
13044SOL    HW240574   3.106   2.792   7.188 -0.4773  0.7428  0.3084
13045SOL     OW40575   1.878   2.168  12.447  0.1657  0.4998 -0.3614
13045SOL    HW140576   1.916   2.092  12.402  0.2306  0.1833  0.2227
13045SOL    HW240577   1.795   2.183  12.402  0.4147  0.4384 -0.8505
13046SOL     OW40578   2.786   2.755   1.527  0.0647  0.1593  0.5387
13046SOL    HW140579   2.752   2.730   1.613 -0.3662 -0.9242  0.0636
13046SOL    HW240580   2.730   2.710   1.464  0.2521  1.0962 -0.3296
13047SOL     OW40581   7.007   5.972   8.670  0.7678  0.1209  0.9044
13047SOL    HW140582   7.050   6.051   8.640  0.0749  0.2624  0.2301
13047SOL    HW240583   7.071   5.902   8.657  0.7747  0.3123 -0.1577
13048SOL     OW40584   0.262   3.367   6.681  0.6001  0.1328  0.1494
13048SOL    HW140585   0.174   3.394   6.708  0.3232  0.5961 -1.1199
13048SOL    HW240586   0.317   3.383   6.757 -0.3507  0.1512  0.8566
13049SOL     OW40587   1.515   6.771   4.374 -0.4074  0.0637 -0.6959
13049SOL    HW140588   1.519   6.810   4.287 -0.7707 -0.9039 -1.1707
13049SOL    HW240589   1.463   6.832   4.426  2.1050  2.0739 -0.3421
13050SOL     OW40590   7.098   5.187  10.416  0.1754 -0.1900  0.0877
13050SOL    HW140591   7.125   5.219  10.502 -0.8675 -1.8297  1.0776
13050SOL    HW240592   7.003   5.180  10.422  0.1911 -1.3925 -0.8082
13051SOL     OW40593   0.763   6.757   7.442  0.0553  0.2272 -0.7961
13051SOL    HW140594   0.736   6.849   7.452 -1.7203 -0.2377 -1.0640
13051SOL    HW240595   0.761   6.721   7.530  0.9258  0.4545 -0.6647
13052SOL     OW40596   5.063   3.121  10.718  0.5038 -0.0989  0.8102
13052SOL    HW140597   5.141   3.072  10.747 -0.6920 -3.0891 -0.5551
13052SOL    HW240598   4.990   3.064  10.741 -1.2630  2.1847  1.1522
13053SOL     OW40599   1.848   0.709  10.708 -0.5098  0.1952  0.1736
13053SOL    HW140600   1.922   0.668  10.662 -1.0237  0.3129 -0.7832
13053SOL    HW240601   1.869   0.699  10.801  1.8506  2.2583 -0.0466
13054SOL     OW40602   3.974   0.657   5.306 -0.1097  0.4483 -0.2332
13054SOL    HW140603   3.987   0.569   5.270  2.3391  1.2620 -1.5760
13054SOL    HW240604   3.942   0.642   5.395  2.2585 -1.9125  0.3649
13055SOL     OW40605   5.508   4.790  10.371  0.4822  0.4807  0.2253
13055SOL    HW140606   5.445   4.819  10.438  1.3230  2.1925  0.3245
13055SOL    HW240607   5.520   4.697  10.389 -1.9470  0.0985  0.2546
13056SOL     OW40608   7.104   3.109   1.868  0.8331 -0.0515  0.2135
13056SOL    HW140609   7.079   3.185   1.921  0.5167 -0.0718  0.0989
13056SOL    HW240610   7.120   3.040   1.931  0.4999 -0.0631  0.2883
13057SOL     OW40611   5.530   3.862  12.031  0.0198 -0.1667 -0.0136
13057SOL    HW140612   5.548   3.808  11.953 -1.2141 -1.8058  0.7626
13057SOL    HW240613   5.563   3.810  12.104  0.1449  0.8409  0.6617
13058SOL     OW40614   0.670   0.651   6.097  0.1044  0.1483  0.0200
13058SOL    HW140615   0.710   0.572   6.135 -1.3864 -0.5541  0.2246
13058SOL    HW240616   0.697   0.722   6.155 -0.3475 -0.5741  1.1574
13059SOL     OW40617   3.350   5.387  11.304  0.0683 -0.4476  0.1196
13059SOL    HW140618   3.284   5.433  11.356 -0.4671 -3.1706  2.0792
13059SOL    HW240619   3.300   5.326  11.251  0.8962 -0.8144 -0.2522
13060SOL     OW40620   4.615   1.073   7.191  0.0304 -0.1366  1.1496
13060SOL    HW140621   4.625   1.164   7.217 -1.6454  0.1218  0.9960
13060SOL    HW240622   4.521   1.056   7.197 -0.1132 -0.9309 -1.7643
13061SOL     OW40623   3.632   3.180   6.388 -0.3668  0.0189 -0.0693
13061SOL    HW140624   3.654   3.214   6.475  0.3631  1.1175 -0.6622
13061SOL    HW240625   3.716   3.157   6.349 -0.5984  0.4602 -0.8462
13062SOL     OW40626   6.114   4.111  10.302  0.6495  0.4602 -0.1438
13062SOL    HW140627   6.168   4.189  10.316 -1.5277  1.8646  1.1247
13062SOL    HW240628   6.097   4.111  10.208  1.4284  0.9845 -0.2974
13063SOL     OW40629   4.927   1.610   8.418  0.2346  0.2458  0.1015
13063SOL    HW140630   4.980   1.568   8.486  1.3165  1.2339 -0.0983
13063SOL    HW240631   4.857   1.655   8.465  0.3290  0.0129  0.4631
13064SOL     OW40632   7.006   5.241   4.184  0.9294 -0.0866 -0.0122
13064SOL    HW140633   7.078   5.282   4.136  2.2148 -0.0798  1.8214
13064SOL    HW240634   7.022   5.263   4.276 -1.4901  0.0046  0.4786
13065SOL     OW40635   4.809   2.279   1.244  0.0117  0.0123  0.2849
13065SOL    HW140636   4.867   2.355   1.238  1.5654 -1.1456 -0.1196
13065SOL    HW240637   4.721   2.316   1.246  0.7384  1.8393  0.6812
13066SOL     OW40638   6.000   0.130   3.184 -0.3721  0.2696  0.4856
13066SOL    HW140639   6.005   0.190   3.109 -0.2881 -0.8799 -0.4581
13066SOL    HW240640   6.086   0.137   3.226  0.7510 -1.3448 -1.3697
13067SOL     OW40641   5.479   4.074   3.926  0.4718  0.0663  0.4323
13067SOL    HW140642   5.419   4.141   3.893  0.5340  0.7245  1.6034
13067SOL    HW240643   5.551   4.072   3.863 -0.2931 -0.0195 -0.4478
13068SOL     OW40644   3.029   4.103   3.024 -0.6406 -0.2859 -0.2067
13068SOL    HW140645   3.098   4.044   3.054 -0.0255  0.2881 -0.4682
13068SOL    HW240646   2.949   4.051   3.029  0.1808 -1.9552 -2.7396
13069SOL     OW40647   6.849   7.013   2.024  0.6494 -0.2237 -0.5411
13069SOL    HW140648   6.847   6.918   2.012 -2.6983 -0.2708 -0.5572
13069SOL    HW240649   6.857   7.026   2.118  1.0464 -0.5220 -0.5346
13070SOL     OW40650   6.796   2.505   8.165  0.7009  0.1646 -0.0704
13070SOL    HW140651   6.816   2.522   8.073  0.2544 -0.3580 -0.2719
13070SOL    HW240652   6.721   2.446   8.163  1.3049 -0.6615  0.6099
13071SOL     OW40653   4.134   5.917   1.538  0.5665  0.0065 -0.5837
13071SOL    HW140654   4.045   5.946   1.516  0.9183  0.6441 -1.2350
13071SOL    HW240655   4.142   5.830   1.499 -0.0142 -0.3805  0.1287
13072SOL     OW40656   2.770   4.233   9.415  0.0249 -0.2439  0.2904
13072SOL    HW140657   2.714   4.243   9.492  0.2320  2.0278  0.2145
13072SOL    HW240658   2.738   4.299   9.353 -0.2861 -2.1421 -1.7166
13073SOL     OW40659   0.737   1.655   8.703  0.0792 -0.1614 -0.8850
13073SOL    HW140660   0.793   1.711   8.650  1.2441  0.8917  1.2863
13073SOL    HW240661   0.793   1.629   8.777 -0.5093 -4.0327 -1.6150
13074SOL     OW40662   2.292   6.097   5.902 -0.3622  0.2912  0.0228
13074SOL    HW140663   2.331   6.050   5.828  1.5577 -2.0649  2.3404
13074SOL    HW240664   2.358   6.162   5.927 -2.0204  2.8228 -1.6775
13075SOL     OW40665   6.398   4.907   7.491  0.1664 -0.5917  0.5386
13075SOL    HW140666   6.333   4.940   7.553  0.1927  2.4793 -0.8791
13075SOL    HW240667   6.347   4.868   7.420 -0.0502 -0.2842  0.5239
13076SOL     OW40668   6.800   1.626   0.573 -1.1853 -0.2335 -0.4750
13076SOL    HW140669   6.846   1.694   0.622  0.9609 -1.2642 -0.9485
13076SOL    HW240670   6.729   1.598   0.631 -0.9415  1.0782  0.5003
13077SOL     OW40671   7.966   2.479   1.674  0.1606 -0.1546 -0.2133
13077SOL    HW140672   7.999   2.539   1.740  2.3961 -0.9969 -0.4629
13077SOL    HW240673   7.997   2.393   1.702 -1.6457 -1.0085 -0.6711
13078SOL     OW40674   6.278   2.713   8.271 -0.7251 -0.1105 -0.0446
13078SOL    HW140675   6.315   2.798   8.295 -2.3557  0.8714 -0.8411
13078SOL    HW240676   6.290   2.708   8.176 -1.1771 -0.5023 -0.0847
13079SOL     OW40677   4.648   5.865   0.202  0.3725 -0.2417  0.1915
13079SOL    HW140678   4.563   5.874   0.246 -1.2222  1.9617 -2.9354
13079SOL    HW240679   4.697   5.943   0.227  0.8849 -0.7153  0.7160
13080SOL     OW40680   4.148   7.146   5.739  0.1691 -0.1555 -0.4271
13080SOL    HW140681   4.190   7.133   5.824 -2.5772 -1.3655  0.8684
13080SOL    HW240682   4.217   7.130   5.675  2.0657 -0.2755  1.5497
13081SOL     OW40683   0.952   1.191  12.065  0.0257 -0.8747 -0.3643
13081SOL    HW140684   0.915   1.271  12.027  1.8114  0.2026  0.0967
13081SOL    HW240685   0.911   1.185  12.151 -0.3126 -0.6164 -0.4999
13082SOL     OW40686   0.452   7.196  12.254 -0.0939  0.2380 -0.5004
13082SOL    HW140687   0.498   7.232  12.330  0.2899 -0.3355 -0.4558
13082SOL    HW240688   0.370   7.246  12.250 -0.4681 -0.2407  0.7409
13083SOL     OW40689   3.782   1.912  11.009 -0.1683  0.3124 -0.6363
13083SOL    HW140690   3.755   1.980  11.071 -1.0130  0.8448 -1.5485
13083SOL    HW240691   3.748   1.942  10.925  0.1382 -0.8540 -1.1977
13084SOL     OW40692   2.867   2.691   0.152  0.2069 -0.4091  0.0247
13084SOL    HW140693   2.907   2.651   0.229  1.6176  0.4216 -0.2356
13084SOL    HW240694   2.895   2.636   0.079 -0.4129 -0.6993 -0.0011
13085SOL     OW40695   1.154   7.882   3.809  0.8806  0.2256  0.2953
13085SOL    HW140696   1.102   7.958   3.834 -0.4199 -0.8936  1.1667
13085SOL    HW240697   1.114   7.809   3.857  3.0730 -0.7650  0.7255
13086SOL     OW40698   0.515   1.734   0.609  0.2100 -1.0042  0.0804
13086SOL    HW140699   0.590   1.675   0.597 -0.2202 -1.8015  1.1897
13086SOL    HW240700   0.462   1.692   0.676  1.0757  1.7994  2.7266
13087SOL     OW40701   3.060   7.827   2.936  0.2501 -0.2111  0.1379
13087SOL    HW140702   2.983   7.777   2.962 -1.7716  2.4547 -0.2835
13087SOL    HW240703   3.089   7.870   3.016  1.3777 -1.2361  0.3019
13088SOL     OW40704   6.391   6.105  10.617 -0.2918  0.5622 -0.3429
13088SOL    HW140705   6.330   6.085  10.688 -0.7436 -1.3533 -1.2015
13088SOL    HW240706   6.337   6.147  10.550 -0.2979  0.4687 -0.3964
13089SOL     OW40707   4.271   6.271   3.153  0.5967 -0.3607  0.3143
13089SOL    HW140708   4.351   6.321   3.172  1.8315 -2.3561  0.5924
13089SOL    HW240709   4.302   6.185   3.124 -1.4700 -1.3534  0.8662
13090SOL     OW40710   1.150   4.169   6.507  0.2193 -0.0708 -0.0639
13090SOL    HW140711   1.118   4.258   6.494  0.3884  0.0823  0.5199
13090SOL    HW240712   1.125   4.122   6.427 -1.8496 -0.0756  0.5398
13091SOL     OW40713   0.754   6.647   7.044 -0.3540  0.0626 -0.5617
13091SOL    HW140714   0.673   6.622   7.088 -1.2571 -1.2924 -2.8095
13091SOL    HW240715   0.821   6.644   7.112 -1.7375 -1.3389  0.8144
13092SOL     OW40716   6.392   3.056  11.324 -0.0354  0.5832  0.0783
13092SOL    HW140717   6.301   3.032  11.340 -0.3775  0.9261 -1.1912
13092SOL    HW240718   6.436   2.973  11.303 -0.4491  0.6121 -0.9597
13093SOL     OW40719   3.510   1.913   1.436  0.3796 -0.3883  0.2103
13093SOL    HW140720   3.583   1.876   1.387  1.3876  0.7359  0.8079
13093SOL    HW240721   3.551   1.963   1.506 -0.9108  1.4366 -0.2662
13094SOL     OW40722   5.460   2.561   5.293  0.4729  0.0743  0.4871
13094SOL    HW140723   5.378   2.545   5.245  1.1066 -0.4172 -0.4580
13094SOL    HW240724   5.517   2.488   5.267  0.9826  0.0429  1.6659
13095SOL     OW40725   3.235   6.704  10.197  0.0592 -0.7949 -0.7335
13095SOL    HW140726   3.242   6.782  10.251  0.2299 -1.2099 -0.1418
13095SOL    HW240727   3.324   6.668  10.194 -0.3541 -2.0193  0.6283
13096SOL     OW40728   4.276   1.616   9.463  0.0832 -0.9256 -0.0696
13096SOL    HW140729   4.221   1.656   9.531  1.4192 -0.0643  0.5465
13096SOL    HW240730   4.214   1.586   9.397 -1.1270  0.1265  0.5362
13097SOL     OW40731   1.394   6.276  12.239 -0.1636 -0.6302 -0.5142
13097SOL    HW140732   1.331   6.210  12.269 -0.4478  0.4384  1.4159
13097SOL    HW240733   1.341   6.345  12.201 -0.1188 -0.1487  0.2706
13098SOL     OW40734   5.611   5.291   7.441  0.0543  0.4108  0.2015
13098SOL    HW140735   5.589   5.200   7.420 -0.9290  0.6505  0.1461
13098SOL    HW240736   5.585   5.301   7.532 -0.4786  0.8312  0.0048
13099SOL     OW40737   1.335   7.774   7.671  0.2312  0.4130 -0.9042
13099SOL    HW140738   1.322   7.740   7.760  1.1019 -0.0771 -0.9590
13099SOL    HW240739   1.273   7.846   7.665 -0.1644  0.1644 -0.0535
13100SOL     OW40740   6.289   4.718   8.237 -0.2897  0.5159  0.5804
13100SOL    HW140741   6.199   4.744   8.221 -0.5581 -0.3178  0.6809
13100SOL    HW240742   6.287   4.673   8.321  0.0652 -0.2425  0.1933
13101SOL     OW40743   3.964   7.497   4.292 -0.0137  0.5920  0.5178
13101SOL    HW140744   3.967   7.472   4.199  0.7665  0.6702  0.5113
13101SOL    HW240745   3.942   7.416   4.338 -1.4431  0.7803  0.1889
13102SOL     OW40746   6.619   2.999   9.774 -0.2565  0.2127 -0.1317
13102SOL    HW140747   6.661   2.925   9.730  0.3549  1.6794 -2.2271
13102SOL    HW240748   6.641   3.074   9.718 -1.1935  1.9043  1.6683
13103SOL     OW40749   7.931   3.592   9.839  0.3186  0.4600 -0.1188
13103SOL    HW140750   7.843   3.629   9.827 -0.4171 -1.4417 -1.0204
13103SOL    HW240751   7.938   3.578   9.933 -0.9334 -0.6467 -0.1622
13104SOL     OW40752   4.348   0.068   4.280  0.4192  0.2522 -0.4239
13104SOL    HW140753   4.379  -0.002   4.223  1.8408 -0.2297  0.8583
13104SOL    HW240754   4.424   0.127   4.288  0.5704 -0.1453  1.5944
13105SOL     OW40755   6.541   3.020   7.973 -0.3213 -0.0390  0.4068
13105SOL    HW140756   6.597   3.041   7.898 -0.3655  0.4490  0.5074
13105SOL    HW240757   6.506   2.932   7.953 -0.3608  0.1007 -0.1609
13106SOL     OW40758   5.853   2.124   2.749 -0.2385 -0.4808 -0.0024
13106SOL    HW140759   5.884   2.152   2.835  1.1218  0.2650 -0.7035
13106SOL    HW240760   5.782   2.185   2.729  1.8466  1.7575 -0.9481
13107SOL     OW40761   2.937   2.462  11.005  0.3481  0.1125 -0.1206
13107SOL    HW140762   2.941   2.399  11.077  0.1440  0.0176 -0.1907
13107SOL    HW240763   3.029   2.475  10.980  0.4981  0.8845  0.7860
13108SOL     OW40764   5.416   7.259   7.109 -0.2094 -1.2477 -0.6191
13108SOL    HW140765   5.455   7.182   7.151  0.3540 -0.1098  1.0373
13108SOL    HW240766   5.489   7.317   7.092 -0.8801 -0.0058  0.5284
13109SOL     OW40767   3.509   4.885   1.520  0.2797  0.1903 -0.2073
13109SOL    HW140768   3.508   4.953   1.587 -0.8079 -0.3677  0.3862
13109SOL    HW240769   3.583   4.829   1.543  0.1588  0.2356  0.3109
13110SOL     OW40770   5.848   2.722  12.023  0.0063  0.1916 -0.3911
13110SOL    HW140771   5.844   2.802  12.075  0.2261  0.9182 -1.4557
13110SOL    HW240772   5.939   2.695  12.027 -0.4266 -1.1619  1.6115
13111SOL     OW40773   1.807   7.183   0.324 -0.2139 -0.0631  0.3099
13111SOL    HW140774   1.836   7.122   0.255  0.1905  1.5251 -1.0021
13111SOL    HW240775   1.712   7.186   0.316 -0.2229 -0.4270  0.2878
13112SOL     OW40776   4.046   1.257   8.546 -0.6227  0.5991 -0.3059
13112SOL    HW140777   3.984   1.281   8.477  0.7821 -2.0813 -2.7230
13112SOL    HW240778   4.031   1.163   8.560  1.1960  0.4252  0.8340
13113SOL     OW40779   2.085   3.229   7.954 -0.0783 -0.0680  0.1335
13113SOL    HW140780   2.082   3.148   8.005  0.3863 -0.8621 -1.0435
13113SOL    HW240781   2.129   3.292   8.011  3.4178 -1.8075 -0.3588
13114SOL     OW40782   5.852   6.911   9.009 -0.2597  0.3594  0.7762
13114SOL    HW140783   5.911   6.985   9.023  2.5223 -1.4189 -0.7311
13114SOL    HW240784   5.831   6.880   9.098 -0.6779  2.2792  1.3878
13115SOL     OW40785   2.763   7.779  11.107  0.6181 -0.2516 -0.3669
13115SOL    HW140786   2.701   7.803  11.176  0.5181 -0.9313 -0.2150
13115SOL    HW240787   2.729   7.821  11.029 -1.3714 -2.4928 -0.8036
13116SOL     OW40788   7.702   2.981   4.542  0.1214  0.4164  0.1037
13116SOL    HW140789   7.642   3.013   4.475 -1.5914 -0.3823  1.1669
13116SOL    HW240790   7.670   3.020   4.624 -0.7698 -2.1903  1.1107
13117SOL     OW40791   3.863   5.753   3.715 -0.6890 -0.2863  0.4818
13117SOL    HW140792   3.854   5.658   3.704  2.7569 -0.7236  0.2536
13117SOL    HW240793   3.847   5.789   3.628  1.6926 -1.1490 -0.3985
13118SOL     OW40794   3.063   5.828   5.878  0.1121  0.5385  0.4540
13118SOL    HW140795   3.095   5.788   5.797  1.7146  0.1674  1.2214
13118SOL    HW240796   3.014   5.759   5.921  0.3684  0.3215  0.4012
13119SOL     OW40797   0.121   5.755   0.264  0.8121 -0.7015 -0.4085
13119SOL    HW140798   0.118   5.843   0.303  0.3588 -0.4715 -0.9536
13119SOL    HW240799   0.057   5.758   0.193 -0.1543 -1.8747  0.3817
13120SOL     OW40800   1.587   5.570   8.616  0.4941 -0.3896 -0.2611
13120SOL    HW140801   1.629   5.562   8.701 -0.8315  0.4043  0.4957
13120SOL    HW240802   1.602   5.485   8.574  0.5860 -1.0325  1.0282
13121SOL     OW40803   7.129   4.268   4.224  0.3893  0.3690  0.1335
13121SOL    HW140804   7.097   4.295   4.138 -0.3596  0.2749  0.3717
13121SOL    HW240805   7.091   4.182   4.238 -0.4773  0.8712  1.0442
13122SOL     OW40806   0.730   7.256   8.734  0.5558 -0.0014 -0.0365
13122SOL    HW140807   0.746   7.300   8.818 -0.9804 -0.0649  0.3116
13122SOL    HW240808   0.708   7.167   8.758  0.8544 -0.2232 -0.5723
13123SOL     OW40809   7.916   1.860   1.811 -0.5248  0.2100 -0.3677
13123SOL    HW140810   7.879   1.897   1.891 -0.2052  0.3642 -0.2914
13123SOL    HW240811   7.841   1.818   1.768 -0.6056 -0.2961  0.2497
13124SOL     OW40812   3.750   5.609   7.970 -0.7323  0.3524 -0.1509
13124SOL    HW140813   3.828   5.578   7.925  1.1071  2.2530  1.4805
13124SOL    HW240814   3.685   5.622   7.901  0.7265 -0.3209 -1.7050
13125SOL     OW40815   7.087   6.611   8.778  0.4653 -0.1973  0.1742
13125SOL    HW140816   7.178   6.582   8.771 -0.1541 -2.0795 -0.8362
13125SOL    HW240817   7.093   6.707   8.776  2.3860 -0.2687 -0.4472
13126SOL     OW40818   2.462   1.643   7.715  0.0491 -0.3712 -0.1500
13126SOL    HW140819   2.500   1.728   7.693 -1.0708  0.1867  0.0282
13126SOL    HW240820   2.537   1.590   7.741  0.5826  1.1396  1.6443
13127SOL     OW40821   2.487   4.920   3.961  0.1467  0.3941  0.0727
13127SOL    HW140822   2.470   5.011   3.986  0.1459 -0.0621  1.8410
13127SOL    HW240823   2.522   4.926   3.872 -0.3184  2.0773 -0.0323
13128SOL     OW40824   4.494   1.817   9.532 -0.2004  0.2214  0.4784
13128SOL    HW140825   4.413   1.787   9.491 -0.1841  1.9218 -0.9548
13128SOL    HW240826   4.529   1.882   9.470  1.6668  0.3522  1.5985
13129SOL     OW40827   3.097   3.411   7.352 -0.3892  0.0832  0.1019
13129SOL    HW140828   3.093   3.506   7.340 -1.0865  0.3504  2.1534
13129SOL    HW240829   3.006   3.383   7.357 -0.1843 -0.3774  1.5793
13130SOL     OW40830   6.369   2.318   8.926 -0.1911  0.3191 -0.1652
13130SOL    HW140831   6.404   2.248   8.870 -0.5812 -1.0374  1.2225
13130SOL    HW240832   6.447   2.358   8.965  0.0876  1.2918 -1.6351
13131SOL     OW40833   1.890   7.544   4.463  0.5615  0.0035 -0.7406
13131SOL    HW140834   1.869   7.584   4.547  0.1449 -1.5245 -0.0923
13131SOL    HW240835   1.837   7.593   4.399 -0.6899 -0.1516  0.1535
13132SOL     OW40836   6.565   7.230   7.949  0.2727  0.3840 -0.2981
13132SOL    HW140837   6.492   7.169   7.958  0.6042 -0.0469 -0.5197
13132SOL    HW240838   6.554   7.267   7.861  0.0996  0.6120 -0.1822
13133SOL     OW40839   6.284   0.947   4.274  0.3597 -0.3228 -0.3092
13133SOL    HW140840   6.337   0.869   4.260  1.4064  0.4055 -0.4766
13133SOL    HW240841   6.315   0.983   4.357  0.0824  0.0886 -0.3792
13134SOL     OW40842   3.522   0.795   1.837 -0.1476 -0.3547  0.0075
13134SOL    HW140843   3.518   0.784   1.743 -0.3386 -0.8907  0.0759
13134SOL    HW240844   3.510   0.889   1.851  0.8148 -0.1277 -0.5531
13135SOL     OW40845   3.773   5.414   4.516 -0.3240 -0.2009 -0.1082
13135SOL    HW140846   3.796   5.488   4.459 -0.4563 -0.9071 -1.0999
13135SOL    HW240847   3.856   5.380   4.547 -0.2245 -0.0941 -0.2574
13136SOL     OW40848   1.903   5.866   7.868  0.1902 -0.5286 -0.2251
13136SOL    HW140849   1.962   5.899   7.936  0.5141 -0.7972 -0.3772
13136SOL    HW240850   1.826   5.924   7.873  1.6034  1.6867 -1.9202
13137SOL     OW40851   2.510   1.627   0.888  0.1614 -0.4625  0.1578
13137SOL    HW140852   2.571   1.683   0.937  1.4526 -0.7931 -1.0120
13137SOL    HW240853   2.544   1.539   0.900  0.8735 -0.4891 -1.7906
13138SOL     OW40854   5.009   1.659  10.111 -0.2231  0.9599 -0.1086
13138SOL    HW140855   4.941   1.719  10.142  1.1560  1.5425  2.0841
13138SOL    HW240856   5.065   1.646  10.188  1.4782 -0.4071 -1.5047
13139SOL     OW40857   4.471   4.059   6.605 -0.6567 -0.1766  0.1440
13139SOL    HW140858   4.414   4.015   6.668 -0.7805 -1.6499 -0.9231
13139SOL    HW240859   4.455   4.013   6.522  1.3114  0.0511 -0.4212
13140SOL     OW40860   2.594   1.653   5.782 -0.0628 -0.0317  0.4141
13140SOL    HW140861   2.637   1.568   5.778  1.9209  0.9379 -0.8609
13140SOL    HW240862   2.649   1.705   5.841 -0.4884  0.7372  0.1442
13141SOL     OW40863   6.751   3.414   9.817 -0.1344  0.3680 -0.2586
13141SOL    HW140864   6.826   3.423   9.759 -0.1046  1.9442 -0.0199
13141SOL    HW240865   6.747   3.497   9.865 -0.8430 -0.4444  1.1685
13142SOL     OW40866   3.048   5.087   2.963 -0.6258  0.8656 -0.1105
13142SOL    HW140867   3.062   5.053   2.874 -2.3026 -2.1500  0.6408
13142SOL    HW240868   3.103   5.165   2.967  0.4730  0.4439 -3.3735
13143SOL     OW40869   6.934   1.479   8.655  0.6376  1.1814  0.1811
13143SOL    HW140870   6.847   1.508   8.627  0.9838  0.3134 -2.0376
13143SOL    HW240871   6.985   1.560   8.662 -0.0415  1.6053  0.3706
13144SOL     OW40872   7.536   5.888   7.504  0.5910 -0.0821  0.4720
13144SOL    HW140873   7.489   5.881   7.421 -0.1514  1.9343  0.6630
13144SOL    HW240874   7.475   5.852   7.568 -0.3401  1.5212  0.5626
13145SOL     OW40875   2.597   6.082   2.177  0.3361 -0.1734  0.5565
13145SOL    HW140876   2.567   6.011   2.233 -0.4330  0.1882  0.6131
13145SOL    HW240877   2.690   6.093   2.199  0.1702 -0.3922  1.3624
13146SOL     OW40878   1.537   4.032   5.441 -0.3769  0.6038  0.0820
13146SOL    HW140879   1.602   4.008   5.507 -0.7387  2.3457  1.1103
13146SOL    HW240880   1.479   3.956   5.436  0.0224  0.1936  1.3044
13147SOL     OW40881   7.631   1.587  12.229 -0.1774  0.6874 -0.3735
13147SOL    HW140882   7.698   1.543  12.177  0.8348  2.4766 -0.6568
13147SOL    HW240883   7.677   1.659  12.271 -1.6688  1.1958  0.4507
13148SOL     OW40884   0.667   5.128   3.314 -0.0203 -0.0416 -0.2434
13148SOL    HW140885   0.646   5.203   3.370 -1.2028  0.3740 -1.2165
13148SOL    HW240886   0.762   5.118   3.324  0.2865  1.9924 -0.5908
13149SOL     OW40887   2.283   4.655   2.530  0.5629  0.5433  0.1066
13149SOL    HW140888   2.336   4.635   2.452  0.9908  0.0136  0.5259
13149SOL    HW240889   2.208   4.597   2.523  0.2250  1.0108 -0.2792
13150SOL     OW40890   6.827   4.280   7.729 -0.1630  0.0934 -0.1268
13150SOL    HW140891   6.907   4.302   7.775 -0.3289  1.4514 -0.4373
13150SOL    HW240892   6.856   4.229   7.653  0.1854 -1.3333  0.9117
13151SOL     OW40893   1.745   5.906  11.501 -0.1276  0.0662 -0.2898
13151SOL    HW140894   1.669   5.914  11.559 -0.0078  0.7173 -0.2190
13151SOL    HW240895   1.820   5.916  11.559  0.0983 -2.4416 -0.0334
13152SOL     OW40896   6.043   4.640   0.472 -0.5666  0.4507  0.1878
13152SOL    HW140897   5.960   4.662   0.514 -0.6523 -0.2222  0.3678
13152SOL    HW240898   6.030   4.553   0.434 -0.1970  0.6648 -0.4587
13153SOL     OW40899   1.092   5.722   9.270  0.5076  0.3814  0.0982
13153SOL    HW140900   1.164   5.770   9.231  0.2035 -0.2973 -1.3539
13153SOL    HW240901   1.129   5.636   9.292  0.1616  0.0221 -0.6757
13154SOL     OW40902   7.676   7.119   3.736  0.0735 -0.1411  0.6097
13154SOL    HW140903   7.661   7.205   3.775  0.2067  0.0615  0.2144
13154SOL    HW240904   7.770   7.104   3.747 -0.1058 -0.6625  1.5427
13155SOL     OW40905   7.967   6.265   4.344  0.3776 -0.1307  0.1638
13155SOL    HW140906   8.039   6.249   4.282  0.7955  0.7315  0.4127
13155SOL    HW240907   7.914   6.186   4.339  0.8974 -0.4496 -0.6331
13156SOL     OW40908   2.617   1.244   1.706  0.7146  0.0537  0.6953
13156SOL    HW140909   2.623   1.294   1.788  0.3185 -0.1120  0.8285
13156SOL    HW240910   2.706   1.211   1.692  1.1074  1.2004  0.3343
13157SOL     OW40911   4.394   2.838   4.265  0.0251  0.1509 -0.0839
13157SOL    HW140912   4.444   2.917   4.285  0.5646 -0.4413  0.9932
13157SOL    HW240913   4.319   2.869   4.215 -0.0990  1.4154  0.8407
13158SOL     OW40914   5.323   1.105   5.583  0.1146 -0.2353 -0.3719
13158SOL    HW140915   5.298   1.018   5.553 -0.0008  0.4444 -2.4163
13158SOL    HW240916   5.272   1.165   5.528 -0.2419  1.1476  1.3674
13159SOL     OW40917   0.582   5.678   7.060  0.1813 -0.1046 -0.4999
13159SOL    HW140918   0.652   5.735   7.028  0.8056 -0.9675 -0.7152
13159SOL    HW240919   0.619   5.637   7.138 -0.6107  0.4952  0.1975
13160SOL     OW40920   1.278   6.064   8.764  0.1059  0.0817 -0.2351
13160SOL    HW140921   1.353   6.081   8.822 -0.9826  0.2126  1.1811
13160SOL    HW240922   1.214   6.131   8.789 -0.2753  0.3646 -1.8615
13161SOL     OW40923   6.782   2.814   0.299  0.0734 -0.3356  0.6509
13161SOL    HW140924   6.834   2.757   0.243  1.0573  1.0702  0.0806
13161SOL    HW240925   6.836   2.829   0.376  0.0196  0.1873  0.5892
13162SOL     OW40926   7.155   0.752   1.763  0.5717 -0.0973 -0.3132
13162SOL    HW140927   7.172   0.659   1.750  0.6889 -0.0454 -0.5429
13162SOL    HW240928   7.242   0.793   1.761  0.5499 -0.0196  0.1046
13163SOL     OW40929   2.907   3.625   5.678  0.1782  0.0587 -0.3025
13163SOL    HW140930   2.977   3.690   5.688  0.5970 -0.3812 -0.3356
13163SOL    HW240931   2.951   3.541   5.688 -0.5840 -0.2011  1.1595
13164SOL     OW40932   2.171   0.898   5.807  0.2648  0.5961  0.0147
13164SOL    HW140933   2.079   0.907   5.830  0.4524  1.7777  0.3795
13164SOL    HW240934   2.174   0.911   5.712 -0.2765 -2.4397 -0.5356
13165SOL     OW40935   5.862   0.315  11.169 -0.1453 -0.0953  0.1802
13165SOL    HW140936   5.845   0.374  11.243  1.1704  0.5301  0.0167
13165SOL    HW240937   5.951   0.336  11.142 -0.4909 -0.5226 -1.3969
13166SOL     OW40938   3.984   0.045  12.401  0.3676 -0.0799 -0.1750
13166SOL    HW140939   3.935  -0.032  12.430  0.4341 -0.3712 -0.8188
13166SOL    HW240940   3.918   0.114  12.393  0.2938 -0.0886  0.3184
13167SOL     OW40941   5.242   7.263   3.762  0.2568 -0.0118 -0.0933
13167SOL    HW140942   5.297   7.341   3.767 -1.4051  1.2862 -1.0594
13167SOL    HW240943   5.259   7.227   3.675 -0.5620  0.5323 -0.4898
13168SOL     OW40944   7.939   3.870   4.584  0.6774  0.0934  0.0245
13168SOL    HW140945   7.914   3.868   4.492 -1.4117 -0.0845  0.5500
13168SOL    HW240946   7.927   3.780   4.615  2.0520 -0.0113  0.3299
13169SOL     OW40947   7.529   2.266   5.446  0.9018  0.4731  0.2818
13169SOL    HW140948   7.548   2.275   5.540 -0.1825 -0.4085  0.6019
13169SOL    HW240949   7.550   2.175   5.426 -0.6888  0.1145  0.1250
13170SOL     OW40950   5.500   2.535   0.825  0.3399 -0.0567 -0.2306
13170SOL    HW140951   5.530   2.576   0.907 -1.2290 -0.0522  0.3703
13170SOL    HW240952   5.530   2.444   0.832  3.4762  0.7417 -1.3863
13171SOL     OW40953   2.692   6.350   3.303 -0.1645 -0.8145  0.0499
13171SOL    HW140954   2.646   6.296   3.368  0.5996 -0.3314  1.0267
13171SOL    HW240955   2.698   6.436   3.344 -1.6245  0.1584 -1.6017
13172SOL     OW40956   3.971   1.688   1.242  0.3111  0.0540  0.4348
13172SOL    HW140957   4.051   1.740   1.230 -1.0228  2.2560  0.3848
13172SOL    HW240958   3.999   1.612   1.292  2.1354  1.7044  2.1254
13173SOL     OW40959   3.871   4.018  11.630  0.1945  0.2620 -0.4092
13173SOL    HW140960   3.825   4.065  11.561  0.7919  1.6384  0.0907
13173SOL    HW240961   3.835   3.930  11.628 -1.5901  0.9667 -0.8275
13174SOL     OW40962   5.658   0.184  11.018  0.0837  0.4334  0.1330
13174SOL    HW140963   5.711   0.223  11.087  1.8978  0.0543 -0.9618
13174SOL    HW240964   5.624   0.259  10.968  1.6799  0.7001 -0.6137
13175SOL     OW40965   3.397   5.190   9.240 -0.0924  0.0545 -0.1164
13175SOL    HW140966   3.428   5.102   9.259 -0.1420  0.1492  0.4210
13175SOL    HW240967   3.315   5.178   9.193  0.5619 -0.1958 -1.2204
13176SOL     OW40968   7.024   4.653   0.872 -0.1651  0.6845  0.1527
13176SOL    HW140969   6.980   4.591   0.930 -1.2944  1.8939  0.6279
13176SOL    HW240970   7.011   4.617   0.784 -2.0110  0.9199  0.2898
13177SOL     OW40971   3.225   7.298  10.976 -0.2392  0.2402 -0.1288
13177SOL    HW140972   3.244   7.357  10.904 -0.5186  0.3258 -0.1367
13177SOL    HW240973   3.178   7.352  11.040 -0.3208  0.0764 -0.0489
13178SOL     OW40974   3.751   5.720   1.552 -0.9962  0.1674  0.2777
13178SOL    HW140975   3.810   5.667   1.604 -0.5457  0.3767 -0.0140
13178SOL    HW240976   3.699   5.656   1.503  0.3527 -0.0250 -0.9766
13179SOL     OW40977   3.081   0.561  11.389 -0.0177  0.2632 -0.0212
13179SOL    HW140978   3.054   0.534  11.477  2.2311  0.9719  0.9814
13179SOL    HW240979   3.073   0.656  11.390  1.6699  0.4457  0.1009
13180SOL     OW40980   3.856   6.179   5.645  0.0644 -0.2513 -0.4814
13180SOL    HW140981   3.803   6.101   5.664  0.8263 -0.4715  0.8446
13180SOL    HW240982   3.823   6.246   5.704  0.4347 -0.0206 -0.5321
13181SOL     OW40983   3.444   5.012   7.593  0.4112 -0.0409  0.3639
13181SOL    HW140984   3.382   5.053   7.533 -0.6592 -0.7654  0.9439
13181SOL    HW240985   3.489   4.946   7.540  0.1549 -0.0252  0.1283
13182SOL     OW40986   2.423   4.018   6.755  0.5311  0.2963  0.1394
13182SOL    HW140987   2.423   3.977   6.669 -2.2557 -1.1178  0.6708
13182SOL    HW240988   2.438   4.111   6.738  1.5261 -0.1621 -1.6842
13183SOL     OW40989   2.358   6.268  11.844  0.1324 -0.3874  0.2776
13183SOL    HW140990   2.286   6.242  11.901  1.8726  1.6295  3.6877
13183SOL    HW240991   2.434   6.220  11.877  1.1138  0.4138 -0.7355
13184SOL     OW40992   3.237   5.290   2.617 -0.2159 -1.0672 -0.3167
13184SOL    HW140993   3.185   5.351   2.670 -0.9489 -2.4298  0.6015
13184SOL    HW240994   3.189   5.284   2.534 -2.5066 -3.3882  0.9984
13185SOL     OW40995   5.630   1.287  11.199 -0.0527  0.4021  0.0455
13185SOL    HW140996   5.579   1.238  11.134  1.1320 -3.0265  1.4661
13185SOL    HW240997   5.719   1.287  11.163  0.5808 -1.3864  1.4464
13186SOL     OW40998   5.327   7.257   4.343  0.5052 -0.1386 -0.0119
13186SOL    HW140999   5.299   7.348   4.333 -0.5078 -0.3804  0.5334
13186SOL    HW241000   5.422   7.260   4.330  0.3643  0.8427 -0.9407
13187SOL     OW41001   2.005   4.093   3.055 -0.0536  0.7336 -0.2923
13187SOL    HW141002   2.018   4.008   3.012  0.3469  0.3650  0.5317
13187SOL    HW241003   1.923   4.083   3.104 -0.8407  1.3604 -1.4355
13188SOL     OW41004   2.914   3.651   4.208 -0.6261 -0.1541 -0.2182
13188SOL    HW141005   2.831   3.697   4.221 -0.2404  0.2575  0.9970
13188SOL    HW241006   2.946   3.635   4.297 -0.2265 -1.8421 -0.6216
13189SOL     OW41007   6.728   0.637  10.908 -0.6238  0.1615 -0.0909
13189SOL    HW141008   6.740   0.586  10.988 -0.1506 -1.5569 -1.2226
13189SOL    HW241009   6.773   0.720  10.925  1.3205 -0.9980  0.6439
13190SOL     OW41010   4.090   4.893   4.784  0.0030  0.1912  0.2108
13190SOL    HW141011   4.051   4.839   4.852 -0.7026 -1.0819 -1.1275
13190SOL    HW241012   4.168   4.844   4.756  0.9463  1.2691  0.8541
13191SOL     OW41013   1.845   2.524   6.427 -0.3120 -0.0423  0.3952
13191SOL    HW141014   1.849   2.572   6.344 -0.6131 -1.0927 -0.2490
13191SOL    HW241015   1.752   2.519   6.446 -0.2210  0.5462  1.0199
13192SOL     OW41016   2.459   5.420  11.401  0.5835  0.9114  0.1366
13192SOL    HW141017   2.395   5.451  11.465  1.2138 -0.0234  1.2587
13192SOL    HW241018   2.446   5.476  11.324 -1.7606  0.5713  0.2245
13193SOL     OW41019   7.296   1.981   7.048 -0.2840 -0.0075 -0.0806
13193SOL    HW141020   7.294   1.896   7.004  0.0977 -0.3423  0.5379
13193SOL    HW241021   7.208   2.016   7.038 -0.6668 -0.8293  0.3380
13194SOL     OW41022   2.951   3.486   0.860 -0.2475  0.3807 -0.1627
13194SOL    HW141023   2.951   3.391   0.853 -0.3644  0.2142  1.7323
13194SOL    HW241024   3.023   3.506   0.921 -1.1608  1.3831  0.6308
13195SOL     OW41025   5.985   7.350   5.619 -0.0622 -0.1231  0.3127
13195SOL    HW141026   5.896   7.369   5.649  0.6271  1.1478  1.6301
13195SOL    HW241027   5.992   7.396   5.535 -0.5495  0.0082  0.3426
13196SOL     OW41028   3.220   1.751   2.592  0.0697  0.6777  0.4868
13196SOL    HW141029   3.173   1.702   2.525 -0.3655 -0.5661  1.6550
13196SOL    HW241030   3.203   1.704   2.674  1.5365  1.4666  1.3040
13197SOL     OW41031   7.257   3.906   8.260 -0.1668  0.2422  0.2287
13197SOL    HW141032   7.206   3.948   8.190 -1.0811  0.6109  1.0923
13197SOL    HW241033   7.193   3.885   8.327  0.7362  0.1184  1.0746
13198SOL     OW41034   5.236   7.849   3.536  0.6846 -0.3535 -0.2682
13198SOL    HW141035   5.263   7.927   3.487  0.2510  1.2213  1.8449
13198SOL    HW241036   5.146   7.834   3.508 -0.6760  2.4350  2.1119
13199SOL     OW41037   6.074   1.651   3.604 -0.1267 -0.1916 -0.5653
13199SOL    HW141038   6.169   1.643   3.597 -0.2877 -1.2585 -2.1242
13199SOL    HW241039   6.054   1.739   3.575  0.3771  0.0640 -0.1551
13200SOL     OW41040   7.076   1.511   0.470  0.2768  0.0102  0.0820
13200SOL    HW141041   7.001   1.564   0.495  1.7558  2.2039  0.2013
13200SOL    HW241042   7.152   1.567   0.489  2.1235 -2.8901  2.1511
13201SOL     OW41043   0.107   5.059   1.997 -0.3658  0.3753 -0.5408
13201SOL    HW141044   0.038   5.043   2.061 -0.5817  1.9945 -0.3192
13201SOL    HW241045   0.188   5.059   2.048 -0.1849 -1.3529 -0.7743
13202SOL     OW41046   0.742   3.970   3.416 -0.2017  0.1833  0.4331
13202SOL    HW141047   0.774   3.893   3.464 -1.0358  0.3300  1.2603
13202SOL    HW241048   0.784   3.964   3.330  2.1808  0.4734  1.4806
13203SOL     OW41049   3.466   0.647   2.561  0.1328 -0.5165  0.3944
13203SOL    HW141050   3.540   0.589   2.579  1.2295  0.1567 -1.6444
13203SOL    HW241051   3.409   0.637   2.637  2.1674 -1.2625  1.9261
13204SOL     OW41052   6.807   3.684   3.961  0.0845  0.0495  0.2087
13204SOL    HW141053   6.719   3.721   3.946 -0.2622 -0.2988  1.3118
13204SOL    HW241054   6.832   3.649   3.875 -1.7943 -1.8362  0.3297
13205SOL     OW41055   6.284   4.144  10.653  0.3286  0.0054  0.5884
13205SOL    HW141056   6.347   4.120  10.721 -0.4537 -1.6943  0.7834
13205SOL    HW241057   6.199   4.141  10.697 -0.2074 -1.2922 -0.4592
13206SOL     OW41058   6.970   4.282  11.835 -0.7915  0.2997  0.1227
13206SOL    HW141059   6.908   4.214  11.860 -0.7017  0.2503  0.2148
13206SOL    HW241060   7.055   4.247  11.862 -0.6284  0.0022 -0.7447
13207SOL     OW41061   3.534   1.706   6.184  0.2436  0.0116  0.9898
13207SOL    HW141062   3.581   1.654   6.249  0.8290 -0.2315  0.3798
13207SOL    HW241063   3.601   1.762   6.146 -0.2191  0.5964  1.0298
13208SOL     OW41064   0.043   7.175   3.068  0.2186  0.1633 -0.4280
13208SOL    HW141065   0.059   7.126   2.987 -0.9276  0.4995 -0.8737
13208SOL    HW241066  -0.011   7.116   3.121 -0.7214  0.7191 -0.7492
13209SOL     OW41067   4.838   1.549   5.266 -0.3289 -0.2473  0.6805
13209SOL    HW141068   4.749   1.545   5.300  0.6294 -1.1669  3.3077
13209SOL    HW241069   4.831   1.521   5.174 -2.6031 -1.1034  1.0680
13210SOL     OW41070   5.474   5.820   2.313 -0.6517  0.7809 -0.0063
13210SOL    HW141071   5.507   5.766   2.241  0.3908  0.8706  0.3971
13210SOL    HW241072   5.419   5.885   2.270 -0.0730  0.8112 -0.7186
13211SOL     OW41073   4.789   0.781   1.180 -0.4860  1.1423 -0.3703
13211SOL    HW141074   4.812   0.696   1.218 -0.8062  1.3648  0.3435
13211SOL    HW241075   4.858   0.798   1.116 -0.0907  0.6159 -0.0914
13212SOL     OW41076   5.288   6.419   1.259 -0.1361 -0.5455  0.3367
13212SOL    HW141077   5.252   6.409   1.171 -1.6131 -1.5241  1.0179
13212SOL    HW241078   5.301   6.513   1.269 -0.9495 -0.3281 -0.5479
13213SOL     OW41079   2.108   4.010  11.972  0.3843 -0.1767 -0.4178
13213SOL    HW141080   2.186   3.975  11.931  0.6118 -0.1273 -0.0310
13213SOL    HW241081   2.038   3.994  11.909  0.6640 -0.4273 -0.6636
13214SOL     OW41082   0.177   0.338   6.183 -0.3901  0.4999 -0.1052
13214SOL    HW141083   0.143   0.410   6.236 -0.6783 -0.9581  1.7804
13214SOL    HW241084   0.102   0.281   6.168  0.5875 -1.5037  2.0205
13215SOL     OW41085   5.773   6.707   0.776  0.2222  0.6808 -0.2836
13215SOL    HW141086   5.708   6.655   0.728  0.1367  0.1133  0.4372
13215SOL    HW241087   5.736   6.718   0.863  0.6262  1.2454 -0.1774
13216SOL     OW41088   7.254   6.229   7.156 -0.0016 -0.6532 -0.2402
13216SOL    HW141089   7.179   6.170   7.166  0.0696 -0.5026  1.5555
13216SOL    HW241090   7.214   6.315   7.139 -0.1633 -0.8605 -0.9496
13217SOL     OW41091   4.731   3.636   6.878 -0.0550 -0.1767 -0.0517
13217SOL    HW141092   4.639   3.657   6.861  0.1239 -0.0754 -0.9391
13217SOL    HW241093   4.774   3.721   6.888 -0.2023 -0.2378  1.2210
13218SOL     OW41094   1.085   4.734   8.896 -0.1395  0.2087  0.2053
13218SOL    HW141095   1.102   4.718   8.989 -0.2135 -0.4034  0.1185
13218SOL    HW241096   0.994   4.709   8.884  0.2651 -1.1370 -0.3236
13219SOL     OW41097   2.219   2.163   7.862 -0.2251 -0.3779  0.3833
13219SOL    HW141098   2.278   2.115   7.919  1.0535  1.1561  0.4303
13219SOL    HW241099   2.147   2.191   7.919  0.6985  0.5646  1.1292
13220SOL     OW41100   3.819   3.832   7.108  0.2542  0.3110  0.2314
13220SOL    HW141101   3.803   3.738   7.100 -0.2748  0.3387  0.8987
13220SOL    HW241102   3.742   3.866   7.153  0.2732  1.1275 -0.3224
13221SOL     OW41103   1.102   1.936   4.083 -0.0181  0.5728 -0.1260
13221SOL    HW141104   1.039   1.916   4.014  0.3945  3.2233 -1.4141
13221SOL    HW241105   1.173   1.983   4.039  1.0171  1.0161  1.8677
13222SOL     OW41106   5.357   0.204   0.015  0.0587  0.0737 -0.3840
13222SOL    HW141107   5.355   0.111  -0.009  1.4248  0.5555 -2.6636
13222SOL    HW241108   5.268   0.235  -0.001 -0.4829 -0.8565  0.6455
13223SOL     OW41109   2.550   5.179  12.050 -0.0113 -0.6972  0.1991
13223SOL    HW141110   2.465   5.223  12.060  0.8715  0.7094  2.6107
13223SOL    HW241111   2.528   5.086  12.046 -1.7034 -0.3603  0.5613
13224SOL     OW41112   5.577   6.577  10.217  0.1303  0.4423 -0.2340
13224SOL    HW141113   5.609   6.665  10.236  0.0204 -0.1012  3.0144
13224SOL    HW241114   5.657   6.525  10.206  0.2114  0.6075 -0.4496
13225SOL     OW41115   5.770   3.253   3.913 -0.6883 -0.3888 -0.0998
13225SOL    HW141116   5.724   3.280   3.992 -0.1222 -0.0869  0.1336
13225SOL    HW241117   5.863   3.261   3.935 -0.5128  0.8408 -1.1689
13226SOL     OW41118   4.912   2.272   9.783 -0.2737 -0.3431  0.1504
13226SOL    HW141119   4.928   2.248   9.691  1.0425 -1.8507  0.7472
13226SOL    HW241120   4.818   2.291   9.786 -0.1948  0.5627 -1.6741
13227SOL     OW41121   6.938   6.090  11.688  0.0099  0.0601 -0.4641
13227SOL    HW141122   6.951   5.996  11.701 -0.8296  0.0004 -0.0011
13227SOL    HW241123   6.844   6.100  11.679 -0.3790  1.2703  3.2897
13228SOL     OW41124   7.742   1.518   8.756 -0.1185 -0.2289 -0.1069
13228SOL    HW141125   7.751   1.484   8.667 -0.5994 -2.5844  0.6847
13228SOL    HW241126   7.682   1.458   8.799 -0.4805  1.2866  1.6354
13229SOL     OW41127   6.033   3.640   0.101  0.1639 -0.2882  0.0461
13229SOL    HW141128   6.003   3.666   0.189  1.2955  0.7607  0.1492
13229SOL    HW241129   5.955   3.603   0.060 -0.8291  0.7356  0.9201
13230SOL     OW41130   2.415   4.849  10.089 -0.3092  0.5245 -0.2400
13230SOL    HW141131   2.455   4.762  10.097 -0.5364  0.4179 -0.2699
13230SOL    HW241132   2.327   4.838  10.125  0.5187  1.3547  2.1697
13231SOL     OW41133   1.521   3.110   3.395 -0.4634  0.0282 -0.0976
13231SOL    HW141134   1.573   3.127   3.474  0.7841 -0.8039 -0.7013
13231SOL    HW241135   1.461   3.040   3.420  2.6667 -3.2790 -0.8334
13232SOL     OW41136   4.221   7.549   5.736  0.0984  0.6265 -0.1329
13232SOL    HW141137   4.271   7.523   5.813 -0.0066 -1.6256 -0.7324
13232SOL    HW241138   4.225   7.644   5.735  0.6086  0.6918  2.2925
13233SOL     OW41139   3.747   6.359   0.984 -0.2596  0.1015  0.4004
13233SOL    HW141140   3.751   6.450   0.955 -0.6650 -0.4564 -1.5155
13233SOL    HW241141   3.798   6.311   0.920 -1.3490 -1.2327  0.4976
13234SOL     OW41142   5.245   7.422   9.878  0.7687  0.1064  0.3780
13234SOL    HW141143   5.151   7.411   9.864  0.9213  0.9188 -1.5830
13234SOL    HW241144   5.256   7.416   9.973 -0.9870 -1.8248  0.5221
13235SOL     OW41145   0.983   0.921   7.451 -0.2524 -0.2932 -0.5462
13235SOL    HW141146   0.926   0.897   7.524  1.9843 -2.2778  0.7159
13235SOL    HW241147   1.030   0.998   7.481  0.2605 -0.7754 -0.0902
13236SOL     OW41148   4.651   3.029   8.836 -0.2018  0.5046 -0.5130
13236SOL    HW141149   4.604   3.027   8.752 -0.4052  1.8878 -0.4439
13236SOL    HW241150   4.594   3.079   8.895  1.2539  2.1212 -0.3917
13237SOL     OW41151   0.601   5.442   5.943  0.4128 -0.1826 -0.1431
13237SOL    HW141152   0.660   5.387   5.891  1.0683  0.2922  0.0930
13237SOL    HW241153   0.601   5.402   6.030  1.6154  0.6885  0.2900
13238SOL     OW41154   0.853   1.160   9.808  0.0086  0.3918  0.2418
13238SOL    HW141155   0.776   1.104   9.820  1.4141 -1.7117 -0.0643
13238SOL    HW241156   0.845   1.226   9.876 -1.5258 -0.4161  0.8966
13239SOL     OW41157   1.317   5.116   4.586  0.3435  0.6292  0.2226
13239SOL    HW141158   1.385   5.169   4.544  0.3130 -0.4385 -1.2414
13239SOL    HW241159   1.365   5.052   4.638  0.5667 -0.9353 -1.7977
13240SOL     OW41160   5.689   0.485   7.613 -0.3382  0.3501  0.2469
13240SOL    HW141161   5.716   0.507   7.524 -2.5989 -1.1060 -0.9160
13240SOL    HW241162   5.596   0.510   7.616 -0.4754 -0.2833  1.9546
13241SOL     OW41163   2.993   1.263  12.139  0.5150 -0.4317  0.0007
13241SOL    HW141164   3.061   1.199  12.117  1.2732  0.3133  0.0958
13241SOL    HW241165   3.029   1.310  12.214  0.2210  0.4596 -0.4095
13242SOL     OW41166   4.516   5.795   3.623 -0.1994 -0.6723 -0.4641
13242SOL    HW141167   4.495   5.744   3.701 -1.7785  0.8855  0.1741
13242SOL    HW241168   4.432   5.828   3.592  0.4036 -1.1165 -2.7815
13243SOL     OW41169   7.304   1.446   3.094 -0.0473 -0.7013  0.5091
13243SOL    HW141170   7.261   1.434   3.179 -0.0834 -2.3470  0.2895
13243SOL    HW241171   7.375   1.382   3.095  0.5586 -0.0511 -0.3196
13244SOL     OW41172   7.670   3.725   5.196 -0.5164 -0.0702  0.2797
13244SOL    HW141173   7.624   3.806   5.175  1.2335  0.9505  0.1904
13244SOL    HW241174   7.724   3.746   5.272  0.8633 -0.7621 -0.4511
13245SOL     OW41175   4.387   6.751   4.612 -0.3333 -0.0880  0.4843
13245SOL    HW141176   4.335   6.679   4.576 -0.3538 -0.0878  0.5129
13245SOL    HW241177   4.432   6.789   4.536 -1.4874  0.8179  0.2108
13246SOL     OW41178   5.191   6.568   9.594  0.8110  0.3161 -0.2391
13246SOL    HW141179   5.265   6.616   9.632  0.2343  0.2192  1.0619
13246SOL    HW241180   5.114   6.621   9.617  0.3430 -0.3051 -0.3599
13247SOL     OW41181   7.659   0.430  10.962  0.1706 -0.5447  0.4182
13247SOL    HW141182   7.617   0.389  10.886 -0.0101  1.1894 -0.4904
13247SOL    HW241183   7.748   0.395  10.962 -0.2532 -1.6524  0.2844
13248SOL     OW41184   2.126   6.895   6.115 -0.2144  0.1543 -0.1511
13248SOL    HW141185   2.067   6.971   6.121  0.7708  0.8357  1.6443
13248SOL    HW241186   2.118   6.852   6.199 -0.1740 -1.3399 -0.8840
13249SOL     OW41187   4.841   7.001   5.551  0.6804 -0.1410  0.2517
13249SOL    HW141188   4.923   7.027   5.593  1.5218  0.2619 -1.5323
13249SOL    HW241189   4.817   7.076   5.497 -0.7978 -0.3237  0.6298
13250SOL     OW41190   5.481   3.269   5.661  0.3745 -0.1400 -0.1628
13250SOL    HW141191   5.416   3.225   5.716  0.9716  0.2684  0.8848
13250SOL    HW241192   5.542   3.309   5.723  1.6758 -0.5808 -1.1265
13251SOL     OW41193   1.487   7.211   2.137 -0.1026 -0.4635 -0.6335
13251SOL    HW141194   1.525   7.148   2.075 -0.0686  0.2871 -1.3879
13251SOL    HW241195   1.422   7.159   2.186  0.1748 -1.1720 -0.9992
13252SOL     OW41196   2.119   6.146   1.718  0.1281  0.0670 -0.1719
13252SOL    HW141197   2.073   6.204   1.779  0.6655  0.1931  0.1203
13252SOL    HW241198   2.053   6.123   1.653 -0.2565  0.5207  0.0493
13253SOL     OW41199   6.246   3.659   8.951  0.0368  0.3798 -0.2250
13253SOL    HW141200   6.210   3.573   8.928 -0.6474  0.0862  1.7050
13253SOL    HW241201   6.273   3.649   9.043  0.8050  1.9655 -0.2479
13254SOL     OW41202   0.482   6.107  12.166  0.2343  1.0010 -0.0340
13254SOL    HW141203   0.507   6.015  12.177 -0.5177  0.9428  1.4506
13254SOL    HW241204   0.511   6.150  12.246 -0.0861  1.9090 -0.3904
13255SOL     OW41205   7.215   3.511   0.052  0.2878 -0.0251 -0.3031
13255SOL    HW141206   7.194   3.432   0.003  0.8503 -0.0302 -0.5490
13255SOL    HW241207   7.302   3.536   0.020 -0.4101  1.4115 -1.1816
13256SOL     OW41208   1.773   2.090   6.918  0.1939 -0.5514 -0.0785
13256SOL    HW141209   1.777   2.157   6.986 -0.6077  1.7513 -2.1477
13256SOL    HW241210   1.697   2.037   6.941  1.0105 -0.9966  1.7582
13257SOL     OW41211   4.460   5.567   4.867 -0.7227 -0.1559 -0.3361
13257SOL    HW141212   4.453   5.545   4.960 -0.6312 -0.7460 -0.4664
13257SOL    HW241213   4.554   5.562   4.848 -0.6768  0.5527 -0.3221
13258SOL     OW41214   6.633   7.100  10.492 -0.5716 -0.4251 -0.0374
13258SOL    HW141215   6.678   7.020  10.467 -1.6262 -1.4058  1.0287
13258SOL    HW241216   6.541   7.074  10.501 -0.5773  0.2136  2.8787
13259SOL     OW41217   3.609   4.261   3.138 -0.1145  0.0883  0.0930
13259SOL    HW141218   3.545   4.331   3.146 -0.4213 -0.2591  0.7368
13259SOL    HW241219   3.662   4.286   3.062  0.0669  1.2451  0.5713
13260SOL     OW41220   3.988   6.677   1.440  0.1382  0.1268 -0.5466
13260SOL    HW141221   3.978   6.771   1.455  0.9421  0.0141  0.8807
13260SOL    HW241222   3.903   6.639   1.462  0.7580  0.1805  2.2856
13261SOL     OW41223   6.758   5.765   9.375 -0.3698  0.3561 -0.5104
13261SOL    HW141224   6.665   5.764   9.397  0.0153 -0.4843  1.2437
13261SOL    HW241225   6.785   5.855   9.388 -0.5837  0.2610  0.7054
13262SOL     OW41226   7.478   5.116  11.531  0.0103 -0.1253 -0.0085
13262SOL    HW141227   7.462   5.030  11.572  2.1447  0.0014  1.2818
13262SOL    HW241228   7.478   5.177  11.605 -0.4821  0.8220 -0.7895
13263SOL     OW41229   5.073   5.499   9.044 -0.3862  0.2728  0.5418
13263SOL    HW141230   5.159   5.533   9.070  0.0642  1.0919 -1.7671
13263SOL    HW241231   5.020   5.577   9.030 -1.3390 -0.2173  1.3653
13264SOL     OW41232   0.042   3.322   2.960 -0.1859 -0.4473 -0.4029
13264SOL    HW141233   0.099   3.308   3.035  0.7060 -0.6050 -1.0881
13264SOL    HW241234   0.083   3.393   2.911 -2.1670  1.5011  0.5988
13265SOL     OW41235   4.894   4.488   2.301 -0.1064 -0.2986 -0.2216
13265SOL    HW141236   4.833   4.526   2.238  0.9086  3.3219  0.7371
13265SOL    HW241237   4.839   4.458   2.372 -0.9812 -0.0493 -0.7712
13266SOL     OW41238   1.879   6.826   0.391  0.0064  0.0836 -0.0858
13266SOL    HW141239   1.829   6.882   0.332  1.1247 -1.2269 -2.4163
13266SOL    HW241240   1.967   6.864   0.393  0.5814 -1.1300 -1.1157
13267SOL     OW41241   6.089   0.963  11.634  1.2874  0.0057 -0.2080
13267SOL    HW141242   6.092   0.932  11.725  0.3226  0.3085 -0.0663
13267SOL    HW241243   6.051   1.050  11.640  1.7026  0.2352 -0.8582
13268SOL     OW41244   6.510   2.790   5.517 -0.2096  0.1747 -0.0044
13268SOL    HW141245   6.471   2.778   5.430 -0.3828 -0.5871  0.1709
13268SOL    HW241246   6.435   2.801   5.575 -0.1111  0.1954  0.1189
13269SOL     OW41247   6.856   6.204   4.953  0.1100  0.1785 -0.0423
13269SOL    HW141248   6.764   6.196   4.980  0.3149  0.2427  0.6955
13269SOL    HW241249   6.853   6.202   4.857 -0.6488  0.0481 -0.0224
13270SOL     OW41250   5.539   1.114  12.176 -0.6380  0.3423  0.2889
13270SOL    HW141251   5.547   1.208  12.192 -1.1822  0.7305 -1.4214
13270SOL    HW241252   5.450   1.104  12.142  0.5437 -0.1304 -3.1219
13271SOL     OW41253   0.149   2.305   0.660 -0.1872 -0.3206  0.1511
13271SOL    HW141254   0.104   2.389   0.652  1.0895  0.3210 -0.6051
13271SOL    HW241255   0.201   2.314   0.741 -0.0006 -0.3500  0.0350
13272SOL     OW41256   7.093   6.350   9.877  0.2426 -0.5258 -0.2329
13272SOL    HW141257   7.015   6.336   9.931 -0.1380  1.3049 -0.2366
13272SOL    HW241258   7.059   6.366   9.789  0.4332  1.9385  0.0677
13273SOL     OW41259   3.927   0.173   0.283  0.2077 -0.4176  0.0192
13273SOL    HW141260   3.850   0.131   0.244  0.4638 -0.0038 -0.9489
13273SOL    HW241261   3.999   0.113   0.262  0.5278  0.3422 -1.1263
13274SOL     OW41262   4.358   2.591   8.576 -0.1664 -0.3984 -0.3403
13274SOL    HW141263   4.266   2.586   8.551  0.4646 -3.2415 -2.5183
13274SOL    HW241264   4.398   2.646   8.509  0.0268 -0.7476 -0.5152
13275SOL     OW41265   0.878   6.898   7.221 -0.0476 -0.8124 -0.1687
13275SOL    HW141266   0.924   6.824   7.261 -0.7383 -0.4123  1.4114
13275SOL    HW241267   0.794   6.903   7.266  0.2867  1.4107  0.3383
13276SOL     OW41268   0.586   1.948   6.812  0.0547  0.4913  0.0089
13276SOL    HW141269   0.497   1.926   6.839  0.4788 -1.5723 -0.1650
13276SOL    HW241270   0.596   1.910   6.725  1.8608 -1.5371  0.9962
13277SOL     OW41271   6.326   6.141  10.976  0.3191 -0.4095  0.2688
13277SOL    HW141272   6.261   6.101  10.918  1.6996 -2.4430  0.0233
13277SOL    HW241273   6.309   6.102  11.061  1.8609 -1.8735 -0.0347
13278SOL     OW41274   6.887   7.125   7.387 -0.4311  0.4805 -0.5432
13278SOL    HW141275   6.848   7.039   7.378 -0.1223  0.4134 -1.2659
13278SOL    HW241276   6.831   7.183   7.336  1.0980  0.1611 -2.7175
13279SOL     OW41277   2.389   7.756   1.156  0.8727  0.0683  0.2749
13279SOL    HW141278   2.461   7.724   1.210  2.2422  0.4883 -1.2066
13279SOL    HW241279   2.432   7.797   1.081 -0.9162  1.3444 -0.1127
13280SOL     OW41280   5.786   2.460  11.685  0.1880  0.2870  0.3456
13280SOL    HW141281   5.771   2.547  11.720 -1.6714  0.1096  0.0929
13280SOL    HW241282   5.737   2.402  11.743  0.3926 -0.4561 -0.2116
13281SOL     OW41283   5.683   1.317   6.868 -0.3910  0.7478  0.7595
13281SOL    HW141284   5.710   1.260   6.797 -1.3317 -0.9256  1.6682
13281SOL    HW241285   5.707   1.269   6.948  1.5577  3.0018  1.6481
13282SOL     OW41286   7.659   1.268   2.201  0.3058  0.1040 -0.3955
13282SOL    HW141287   7.567   1.247   2.220 -0.3725  0.7861 -2.6202
13282SOL    HW241288   7.684   1.328   2.271 -0.3220 -1.4597  1.2751
13283SOL     OW41289   6.032   2.253  10.459 -0.3395  0.2359  0.3379
13283SOL    HW141290   6.044   2.230  10.551 -0.1318  0.8436  0.4667
13283SOL    HW241291   5.963   2.195  10.428  0.2987 -0.6774  0.6049
13284SOL     OW41292   0.032   5.414  12.097  0.3989 -0.4616  0.4297
13284SOL    HW141293  -0.032   5.349  12.069  2.3852 -2.7436  0.9242
13284SOL    HW241294   0.087   5.428  12.020 -0.9034  1.9311 -0.1824
13285SOL     OW41295   0.720   2.504  11.827  0.0201 -0.2832 -0.0949
13285SOL    HW141296   0.808   2.541  11.826  0.5130 -1.4034 -0.6483
13285SOL    HW241297   0.722   2.437  11.759 -0.9593 -0.9887  0.5428
13286SOL     OW41298   7.577   4.153   5.640 -0.1832  0.1963 -0.7358
13286SOL    HW141299   7.508   4.138   5.705 -2.6753  0.6388 -3.1054
13286SOL    HW241300   7.575   4.247   5.624  0.3400  0.0746 -1.5411
13287SOL     OW41301   4.388   1.408   8.308 -0.4784 -0.6091 -0.3808
13287SOL    HW141302   4.335   1.360   8.371 -1.1930  1.0143  0.3175
13287SOL    HW241303   4.467   1.432   8.357 -0.5700 -0.2265 -0.4202
13288SOL     OW41304   1.405   1.001   3.690 -0.1991  0.1304 -0.3612
13288SOL    HW141305   1.497   0.980   3.673  0.2322  1.9874 -0.5081
13288SOL    HW241306   1.380   0.942   3.761  0.2130 -2.4400 -2.1989
13289SOL     OW41307   1.745   6.703   8.995 -0.8398  0.4143 -0.3712
13289SOL    HW141308   1.793   6.620   8.989  0.1013  0.8406  0.9135
13289SOL    HW241309   1.783   6.748   9.070 -2.5126  1.2722  0.0142
13290SOL     OW41310   0.820   2.481   8.988  0.0838 -0.4994  0.0715
13290SOL    HW141311   0.892   2.495   8.927  0.8116  0.0957  1.0283
13290SOL    HW241312   0.792   2.391   8.973 -0.4316 -0.0714 -1.8208
13291SOL     OW41313   7.530   1.475   1.926  0.1982  0.0403 -0.2284
13291SOL    HW141314   7.536   1.499   2.018  1.5020 -0.4883 -0.1677
13291SOL    HW241315   7.541   1.558   1.878  0.0119  0.2355  0.0623
13292SOL     OW41316   2.837   5.976  10.054 -0.0433  0.7279  0.4374
13292SOL    HW141317   2.804   5.996  10.141  1.3253  2.2118  0.6524
13292SOL    HW241318   2.917   5.926  10.069 -0.7965 -0.6699 -0.0283
13293SOL     OW41319   5.046   5.150   2.435 -0.3552 -0.2227  0.0761
13293SOL    HW141320   5.130   5.195   2.448 -0.4538 -0.0095 -0.0185
13293SOL    HW241321   5.060   5.062   2.470  0.4824 -0.7826 -1.5843
13294SOL     OW41322   7.420   2.072   0.872 -0.1226  0.3157  0.6079
13294SOL    HW141323   7.377   2.096   0.954  1.1884  0.4242  1.2976
13294SOL    HW241324   7.462   2.153   0.843  1.6129 -0.3064  1.2381
13295SOL     OW41325   2.932   2.495   9.958  0.1667  0.1655 -0.5098
13295SOL    HW141326   3.028   2.499   9.960  0.1252  2.2309  0.5979
13295SOL    HW241327   2.912   2.405   9.932  2.3647 -1.7914  3.5874
13296SOL     OW41328   0.127   7.046   8.315 -0.0106  0.1916  0.2961
13296SOL    HW141329   0.066   7.097   8.263  2.1511  1.8951 -0.7285
13296SOL    HW241330   0.190   7.110   8.348  0.9782 -1.4123  1.6928
13297SOL     OW41331   7.252   7.626   5.468  0.0757 -0.0378  0.8184
13297SOL    HW141332   7.343   7.625   5.437 -0.5932 -0.0944 -1.2874
13297SOL    HW241333   7.224   7.535   5.466 -0.3190  0.0846  0.4693
13298SOL     OW41334   1.841   6.293   7.477 -0.1720 -0.2177 -0.2587
13298SOL    HW141335   1.845   6.375   7.526  1.4302 -0.7518  0.5878
13298SOL    HW241336   1.784   6.313   7.402  1.4112  2.1502 -0.9620
13299SOL     OW41337   0.189   6.825   5.527  0.2351  0.3307 -0.4001
13299SOL    HW141338   0.099   6.804   5.504  0.6633 -0.8182 -1.0916
13299SOL    HW241339   0.208   6.769   5.602  0.3450  0.6452 -0.1923
13300SOL     OW41340   4.568   3.508   2.744  0.1402  0.0224 -0.5499
13300SOL    HW141341   4.627   3.547   2.809  2.2970  0.3042 -2.5348
13300SOL    HW241342   4.610   3.527   2.660 -2.4988 -0.3771 -2.0471
13301SOL     OW41343   7.546   4.606   4.803 -0.0968  0.4882 -0.1066
13301SOL    HW141344   7.506   4.521   4.825 -0.2452  0.5801 -0.0199
13301SOL    HW241345   7.639   4.594   4.822 -0.4081  1.0252  1.9930
13302SOL     OW41346   1.552   1.940   7.033  0.6214  1.0410  0.1442
13302SOL    HW141347   1.501   1.940   6.951 -0.8192  1.8217  0.9988
13302SOL    HW241348   1.494   1.900   7.097  0.6743  2.8402  1.3735
13303SOL     OW41349   0.141   1.796   4.132 -0.0207 -0.1593  0.4489
13303SOL    HW141350   0.168   1.886   4.148  1.1472 -0.5475  0.8400
13303SOL    HW241351   0.046   1.796   4.144 -0.2768  1.3525 -1.2658
13304SOL     OW41352   7.381   6.687   0.373 -0.0770 -0.0314  0.0723
13304SOL    HW141353   7.301   6.734   0.349  0.5717  0.6160 -0.9352
13304SOL    HW241354   7.390   6.701   0.467 -1.4267 -0.5705  0.3010
13305SOL     OW41355   7.841   1.797   4.097  0.2093 -0.4133 -0.1030
13305SOL    HW141356   7.809   1.887   4.090  0.5485 -0.2888 -0.0632
13305SOL    HW241357   7.764   1.743   4.079  0.0836 -0.1160 -0.4843
13306SOL     OW41358   5.003   6.688  12.161  0.7040 -0.2184 -0.5266
13306SOL    HW141359   4.919   6.643  12.171  1.2695 -1.1769  0.0363
13306SOL    HW241360   5.017   6.691  12.066 -0.0288  0.0968 -0.6363
13307SOL     OW41361   1.747   4.920   4.708  0.0806  0.4765 -0.4580
13307SOL    HW141362   1.771   4.987   4.643  0.1974 -0.9860 -2.0163
13307SOL    HW241363   1.789   4.840   4.675 -0.2734 -0.4237  1.1947
13308SOL     OW41364   1.119   4.997   9.163 -0.1476 -0.0497  1.0976
13308SOL    HW141365   1.046   4.935   9.160  0.0426 -0.2562  0.6595
13308SOL    HW241366   1.118   5.038   9.076  0.2651 -0.0581  1.0911
13309SOL     OW41367   7.387   0.312  11.440 -0.2364 -0.2535  0.7511
13309SOL    HW141368   7.441   0.233  11.443 -0.8058 -0.6324  1.0555
13309SOL    HW241369   7.363   0.329  11.531  1.8116  1.6369  1.0365
13310SOL     OW41370   0.051   4.952   7.309 -0.0096 -0.6610  0.1975
13310SOL    HW141371  -0.012   4.883   7.330  0.9759 -1.3657  0.9805
13310SOL    HW241372   0.134   4.920   7.346  0.6000  0.6724  0.0419
13311SOL     OW41373   6.928   0.457   5.519  0.4599  0.2704  0.3584
13311SOL    HW141374   6.930   0.552   5.532  0.9585  0.4863 -1.0616
13311SOL    HW241375   7.001   0.440   5.459 -0.9423 -0.6894 -1.1704
13312SOL     OW41376   5.358   3.199   5.892  0.2285  0.2327  0.2239
13312SOL    HW141377   5.378   3.271   5.952 -1.5777  0.8410  0.1814
13312SOL    HW241378   5.317   3.133   5.947 -0.0145  0.1319 -0.0726
13313SOL     OW41379   5.562   5.234   6.970  0.1558  0.2034  0.5355
13313SOL    HW141380   5.642   5.250   7.019  0.4087  1.1655 -0.1656
13313SOL    HW241381   5.501   5.197   7.034 -0.0399  2.8502  1.9882
13314SOL     OW41382   7.401   6.451   9.053  0.0845 -0.5217  0.1342
13314SOL    HW141383   7.463   6.522   9.067 -0.5224 -0.0744  0.5918
13314SOL    HW241384   7.340   6.457   9.127 -1.1438 -0.2859 -0.8724
13315SOL     OW41385   5.358   0.486   4.517  0.0587  0.1185 -0.1261
13315SOL    HW141386   5.331   0.433   4.442 -1.2247 -0.0920  0.4654
13315SOL    HW241387   5.277   0.503   4.565  0.4557  2.3741 -0.1293
13316SOL     OW41388   2.225   5.134   5.104 -0.3039 -0.1859  0.0926
13316SOL    HW141389   2.320   5.122   5.096 -0.0536 -0.6149  2.9070
13316SOL    HW241390   2.204   5.105   5.192 -3.3182 -1.3800 -0.8923
13317SOL     OW41391   7.656   6.817  11.150 -0.1558  0.2425  0.0225
13317SOL    HW141392   7.609   6.746  11.194 -1.7141  1.1324 -0.1517
13317SOL    HW241393   7.626   6.814  11.059 -1.8781  2.3730  0.4395
13318SOL     OW41394   4.650   6.968   9.015  0.0791 -0.2709  0.1987
13318SOL    HW141395   4.724   7.028   9.029 -0.0791 -0.2863  1.1150
13318SOL    HW241396   4.615   6.994   8.929  0.3622  0.5821  0.3288
13319SOL     OW41397   0.849   0.581   9.871 -0.6745 -0.1506  0.3782
13319SOL    HW141398   0.788   0.528   9.821 -1.9970 -0.3313  2.1083
13319SOL    HW241399   0.849   0.666   9.826  0.3598 -1.1169 -1.5511
13320SOL     OW41400   5.316   4.729  11.053  0.0299 -0.4140 -0.1328
13320SOL    HW141401   5.302   4.778  11.134  1.2230  0.0733 -0.2063
13320SOL    HW241402   5.401   4.760  11.020  0.0809 -1.4069 -0.9892
13321SOL     OW41403   1.604   0.238   7.422 -0.2139  0.5446  0.1285
13321SOL    HW141404   1.663   0.233   7.498  1.6153  2.0199 -1.0967
13321SOL    HW241405   1.660   0.216   7.348 -1.5024  0.9102 -0.9852
13322SOL     OW41406   6.393   6.584   5.850  0.0886  0.4503 -0.4866
13322SOL    HW141407   6.327   6.535   5.899  0.9557 -1.4140 -1.0806
13322SOL    HW241408   6.344   6.652   5.806 -1.4105 -0.6719 -0.6465
13323SOL     OW41409   5.110   1.127   8.196  0.3467  0.0320 -0.3871
13323SOL    HW141410   5.141   1.161   8.280  0.6516 -0.3271 -0.3514
13323SOL    HW241411   5.027   1.084   8.216  0.8207 -0.7805 -0.1136
13324SOL     OW41412   7.474   6.497   0.197 -0.2600 -0.7078  0.3056
13324SOL    HW141413   7.429   6.574   0.229  1.6664  0.7588 -0.3238
13324SOL    HW241414   7.455   6.495   0.103 -0.4434 -1.1170  0.3461
13325SOL     OW41415   7.243   6.259   9.508  0.6188 -0.4583 -0.4374
13325SOL    HW141416   7.220   6.187   9.566  0.7974  0.0237  0.2394
13325SOL    HW241417   7.326   6.292   9.542  1.1355 -0.6818 -1.4508
13326SOL     OW41418   0.367   0.350   6.827  0.2068  0.5816 -0.2128
13326SOL    HW141419   0.311   0.416   6.867 -1.9422 -1.7966  1.0350
13326SOL    HW241420   0.403   0.301   6.901  2.9150  1.1547 -1.0476
13327SOL     OW41421   2.987   3.083   7.100  0.1664  0.3599 -0.5762
13327SOL    HW141422   2.921   3.139   7.140  0.8233  0.2800  0.6803
13327SOL    HW241423   3.029   3.040   7.174  0.7906 -0.5253 -1.4312
13328SOL     OW41424   0.781   4.515   5.411  0.0966 -0.6190  0.2777
13328SOL    HW141425   0.795   4.435   5.461  2.1926 -0.9019 -0.6505
13328SOL    HW241426   0.846   4.512   5.341 -1.5709  0.5844 -1.4586
13329SOL     OW41427   3.731   5.014   9.433  0.6995 -0.3145  0.2291
13329SOL    HW141428   3.803   5.006   9.495  0.9276 -0.3321 -0.0387
13329SOL    HW241429   3.767   5.065   9.360  0.6962 -1.0537 -0.2945
13330SOL     OW41430   3.320   4.919  11.314  0.3575  0.1994  0.7540
13330SOL    HW141431   3.239   4.924  11.364  0.1239  0.2785  0.3739
13330SOL    HW241432   3.312   4.839  11.263  0.2767  0.4877  0.3073
13331SOL     OW41433   5.398   0.563   0.871  0.4066 -0.0364 -0.0008
13331SOL    HW141434   5.415   0.488   0.814  0.6536 -0.0149  0.0423
13331SOL    HW241435   5.320   0.604   0.834 -0.2831 -0.8510  0.5199
13332SOL     OW41436   7.071   4.599   4.611 -0.3687 -0.0546 -0.3480
13332SOL    HW141437   7.147   4.649   4.581 -0.4380  0.2773  0.0181
13332SOL    HW241438   7.085   4.511   4.577 -0.3761  0.2740 -1.2312
13333SOL     OW41439   6.244   7.909   0.637 -0.2515 -0.0538 -0.0604
13333SOL    HW141440   6.164   7.921   0.687  1.0411 -0.0974  2.1160
13333SOL    HW241441   6.255   7.991   0.588 -1.7170 -0.1538 -0.6045
13334SOL     OW41442   2.383   7.001  11.764 -0.0562  0.0583  0.4575
13334SOL    HW141443   2.288   7.010  11.766 -0.5817 -3.7936 -0.0554
13334SOL    HW241444   2.405   7.005  11.671  0.2066  0.4423  0.5373
13335SOL     OW41445   4.216   4.343   3.919  0.8078  0.2134 -0.2483
13335SOL    HW141446   4.189   4.251   3.925 -2.3800  1.0313 -0.0434
13335SOL    HW241447   4.254   4.362   4.004  1.4737 -0.8803 -0.2770
13336SOL     OW41448   2.492   4.978   9.299 -0.4850  0.3335 -0.5326
13336SOL    HW141449   2.578   4.938   9.314 -0.4961 -0.2308 -1.8379
13336SOL    HW241450   2.492   5.056   9.354  0.6613  0.0629 -0.1214
13337SOL     OW41451   4.224   1.219   3.281 -0.0247 -0.3353  0.0163
13337SOL    HW141452   4.214   1.313   3.300 -0.9598 -0.4128 -0.0591
13337SOL    HW241453   4.318   1.205   3.281  0.1030  0.4405  0.8630
13338SOL     OW41454   5.263   4.801   8.095  0.5875  0.6341 -0.3094
13338SOL    HW141455   5.215   4.749   8.159 -1.5332  3.3502  0.4765
13338SOL    HW241456   5.297   4.736   8.032 -0.2263 -1.8044  1.6101
13339SOL     OW41457   7.483   1.160   3.603 -0.2328 -0.1977  0.4056
13339SOL    HW141458   7.548   1.228   3.585  1.1558 -1.8777 -1.3154
13339SOL    HW241459   7.475   1.111   3.521 -2.9312 -0.7126  0.8830
13340SOL     OW41460   2.398   1.619   1.232 -0.4073  0.4349 -0.1735
13340SOL    HW141461   2.321   1.582   1.275 -0.4527 -0.6040 -1.0947
13340SOL    HW241462   2.436   1.546   1.183  0.2480  1.3018 -1.0185
13341SOL     OW41463   3.657   7.544   1.307 -0.2350 -0.5998 -0.1154
13341SOL    HW141464   3.685   7.495   1.384  0.3267  1.1391  0.8351
13341SOL    HW241465   3.570   7.577   1.330  0.9209  2.0165  0.8839
13342SOL     OW41466   2.253   7.025   7.280 -0.2112 -0.5436 -0.1945
13342SOL    HW141467   2.249   6.934   7.311 -0.7897 -0.6126 -0.4644
13342SOL    HW241468   2.166   7.060   7.299 -0.6630 -0.6406 -1.8972
13343SOL     OW41469   2.487   4.184   8.546  0.2977  0.1230  0.2881
13343SOL    HW141470   2.411   4.146   8.503  0.5930 -0.3308  0.1568
13343SOL    HW241471   2.534   4.109   8.582  1.8269  0.1611 -1.4950
13344SOL     OW41472   5.884   6.818   3.921  0.2378 -0.1083 -0.0796
13344SOL    HW141473   5.903   6.849   3.833 -0.5848  0.2307 -0.1493
13344SOL    HW241474   5.969   6.811   3.963  0.4735  2.5687  0.0503
13345SOL     OW41475   2.049   2.935   5.899  0.1787 -0.2345 -0.6403
13345SOL    HW141476   2.027   2.926   5.992 -1.1679  1.3223 -0.7579
13345SOL    HW241477   1.989   2.876   5.854 -0.2000  0.1157 -0.6041
13346SOL     OW41478   5.648   0.271   4.145  0.1916 -0.1399  0.1431
13346SOL    HW141479   5.700   0.208   4.194  1.2151  1.4168  1.1689
13346SOL    HW241480   5.572   0.288   4.201  0.8168  0.8279  0.7332
13347SOL     OW41481   7.623   0.990   8.026 -0.0864  0.1358  0.0031
13347SOL    HW141482   7.530   0.969   8.023  0.2613 -1.4223 -2.1806
13347SOL    HW241483   7.666   0.904   8.033  1.2197  0.8388  1.2133
13348SOL     OW41484   1.868   1.856   0.036 -0.1096  0.1665  0.4470
13348SOL    HW141485   1.876   1.782  -0.024  0.6065  0.0789  0.6439
13348SOL    HW241486   1.797   1.908  -0.000 -0.1252 -0.2309 -0.1082
13349SOL     OW41487   7.822   5.484   6.548 -0.5175 -0.5143  0.5859
13349SOL    HW141488   7.867   5.507   6.630 -0.3127 -1.2752  0.6892
13349SOL    HW241489   7.741   5.442   6.576 -0.3814 -0.9051  0.3976
13350SOL     OW41490   3.488   5.531  10.151  0.1431  0.2725  0.3734
13350SOL    HW141491   3.484   5.494  10.063  1.5616 -0.4070  0.5628
13350SOL    HW241492   3.424   5.602  10.151 -1.7550 -1.3390 -0.4227
13351SOL     OW41493   5.264   4.232   2.041 -0.0798 -0.3755  0.0459
13351SOL    HW141494   5.225   4.231   2.128  0.2915  0.4251  0.2329
13351SOL    HW241495   5.318   4.311   2.040 -2.0737  1.0813 -1.7919
13352SOL     OW41496   2.840   3.736   5.043 -0.2199 -0.2266 -0.4753
13352SOL    HW141497   2.755   3.693   5.052 -0.4151  0.5727  2.1003
13352SOL    HW241498   2.823   3.809   4.983 -1.4483  0.1462  0.2910
13353SOL     OW41499   2.203   0.741   1.252 -0.3204  0.1025 -0.5742
13353SOL    HW141500   2.119   0.703   1.274  0.0691 -0.6190 -0.2902
13353SOL    HW241501   2.191   0.836   1.261 -1.0559 -0.0071 -0.4098
13354SOL     OW41502   4.148   4.675   1.997  0.2270  0.2854 -0.1096
13354SOL    HW141503   4.158   4.583   1.975 -0.1087  0.2609 -0.1771
13354SOL    HW241504   4.193   4.722   1.927 -0.0615  0.1843 -0.3666
13355SOL     OW41505   3.036   4.185   6.337 -0.8499  0.2946 -0.2721
13355SOL    HW141506   2.992   4.243   6.275  2.3328  1.0918 -2.0051
13355SOL    HW241507   3.079   4.245   6.399  0.7617 -0.2120 -0.8455
13356SOL     OW41508   5.710   4.536   0.372 -0.5786 -0.1205 -0.1722
13356SOL    HW141509   5.629   4.582   0.348 -0.1857  1.3173  1.0705
13356SOL    HW241510   5.753   4.517   0.288 -1.3634  0.7035 -0.7787
13357SOL     OW41511   2.098   2.159   5.222  0.3472  0.2212  0.6911
13357SOL    HW141512   2.146   2.156   5.139 -0.7669  1.1557 -0.0405
13357SOL    HW241513   2.163   2.142   5.289  1.5767  0.8574 -0.2967
13358SOL     OW41514   2.086   6.697  11.360  0.0707 -0.4108  0.4000
13358SOL    HW141515   2.105   6.788  11.384 -0.3620 -0.0821 -0.4748
13358SOL    HW241516   2.006   6.703  11.307 -2.1666 -1.6350  3.3454
13359SOL     OW41517   1.801   3.921   4.689 -0.1279  0.2078 -0.5037
13359SOL    HW141518   1.755   3.844   4.723  1.2552 -0.1400  0.6923
13359SOL    HW241519   1.855   3.951   4.762 -0.6662  2.3666 -0.9494
13360SOL     OW41520   7.141   4.914   3.081  0.1829 -0.1523  0.4489
13360SOL    HW141521   7.146   4.826   3.044 -0.1879  0.5474 -1.3489
13360SOL    HW241522   7.232   4.945   3.080  0.0940  0.1191 -0.5961
13361SOL     OW41523   6.081   6.601   1.311  0.1115 -0.1208 -0.1580
13361SOL    HW141524   6.156   6.644   1.352  0.4209 -0.1178 -0.7011
13361SOL    HW241525   6.121   6.544   1.245 -0.3366 -0.5817 -0.0348
13362SOL     OW41526   2.549   5.374   3.199  0.4638  0.5152  0.0421
13362SOL    HW141527   2.540   5.371   3.295  1.1775 -1.0345  0.0882
13362SOL    HW241528   2.644   5.372   3.185  0.3831  1.3644 -0.7065
13363SOL     OW41529   0.743   4.521   4.849 -0.3016  0.0379  0.2593
13363SOL    HW141530   0.681   4.462   4.806 -1.0595 -0.0884  1.4595
13363SOL    HW241531   0.713   4.524   4.940 -0.0798  2.0215  0.3017
13364SOL     OW41532   7.155   6.194   4.673 -0.0327 -0.0942  0.3927
13364SOL    HW141533   7.109   6.173   4.591 -1.9027  1.6297  0.9308
13364SOL    HW241534   7.237   6.145   4.667 -0.0445  0.0567 -2.5525
13365SOL     OW41535   6.388   6.634   1.148 -0.6110  0.5926  0.2676
13365SOL    HW141536   6.364   6.670   1.234 -1.0433  1.6449 -0.2812
13365SOL    HW241537   6.338   6.553   1.142  1.2569 -0.7957  2.0073
13366SOL     OW41538   3.876   3.246   3.814  0.7372  0.3004 -0.2969
13366SOL    HW141539   3.862   3.259   3.720  3.6029 -0.4307 -0.9125
13366SOL    HW241540   3.806   3.185   3.839 -0.4009  0.9073 -1.8229
13367SOL     OW41541   0.635   1.072  11.073 -0.3380 -0.1880  0.4197
13367SOL    HW141542   0.704   1.131  11.042  0.1974 -0.9858  0.0810
13367SOL    HW241543   0.554   1.119  11.054  0.0985  0.7473  0.7906
13368SOL     OW41544   0.794   5.909   6.173  0.3528 -0.2533 -0.4699
13368SOL    HW141545   0.779   5.928   6.266  1.5697  1.8325 -0.6289
13368SOL    HW241546   0.821   5.817   6.171  3.2599  0.3907  1.6974
13369SOL     OW41547   1.156   3.891   8.756  0.1649 -0.4064  0.1795
13369SOL    HW141548   1.200   3.892   8.841  1.1449 -1.6674 -0.2807
13369SOL    HW241549   1.072   3.934   8.772  0.9596  0.7480  1.4174
13370SOL     OW41550   4.705   0.405   0.636 -0.1838 -0.7209  0.5135
13370SOL    HW141551   4.695   0.354   0.717 -2.1441  0.0454  0.7923
13370SOL    HW241552   4.625   0.388   0.587  0.6655 -0.5995 -0.9877
13371SOL     OW41553   0.042   6.078   8.319 -0.1528  0.0062 -0.4633
13371SOL    HW141554  -0.043   6.044   8.294  0.0707 -0.9197  0.0125
13371SOL    HW241555   0.082   6.105   8.236 -1.5813  2.1229 -0.5386
13372SOL     OW41556   3.357   7.673   3.171  0.4256 -0.1419 -0.0665
13372SOL    HW141557   3.371   7.594   3.119  1.1770  0.3878 -0.6949
13372SOL    HW241558   3.350   7.743   3.106 -0.8473  0.2445  0.4484
13373SOL     OW41559   6.578   0.431   1.609 -0.0753 -0.3641 -0.1864
13373SOL    HW141560   6.564   0.507   1.553 -2.4588  0.2224  1.0617
13373SOL    HW241561   6.665   0.399   1.585  1.3501  3.1242 -0.3147
13374SOL     OW41562   5.210   6.848   9.374 -0.7821  0.2860 -0.3872
13374SOL    HW141563   5.132   6.795   9.361 -0.3484 -0.2432 -0.8827
13374SOL    HW241564   5.283   6.787   9.365 -0.2464  1.0319 -1.4834
13375SOL     OW41565   6.735   5.228  11.735  0.3376  0.3685  0.3268
13375SOL    HW141566   6.697   5.144  11.760  0.5170  0.7878  2.1936
13375SOL    HW241567   6.660   5.280  11.706  0.4511 -0.9779 -2.7693
13376SOL     OW41568   3.150   0.141   5.490 -0.7257  0.2394  0.1300
13376SOL    HW141569   3.063   0.180   5.492 -0.9656 -0.0088 -2.4680
13376SOL    HW241570   3.136   0.052   5.457  0.6287  0.8806 -2.4938
13377SOL     OW41571   7.651   3.747   3.257 -0.5565 -0.0890 -0.6307
13377SOL    HW141572   7.557   3.732   3.248 -0.8953  2.0819 -1.1324
13377SOL    HW241573   7.660   3.841   3.275  1.5096 -0.2499 -0.4994
13378SOL     OW41574   3.999   2.953   2.898  0.0329 -0.7108  0.3255
13378SOL    HW141575   3.977   2.935   2.989  0.2111  0.0631  0.5312
13378SOL    HW241576   4.079   2.903   2.882 -0.3804 -1.3995  0.3811
13379SOL     OW41577   7.369   6.824   7.718  0.1026  0.3916  0.1767
13379SOL    HW141578   7.307   6.858   7.782 -0.4473  2.6101 -1.4091
13379SOL    HW241579   7.314   6.780   7.653  0.2079  1.6216 -0.7892
13380SOL     OW41580   5.943   2.023   1.517 -0.1540 -0.4239  0.1731
13380SOL    HW141581   5.995   1.990   1.591 -1.0190  0.0367  1.0001
13380SOL    HW241582   5.976   1.973   1.442 -0.4093 -2.1466  1.1353
13381SOL     OW41583   1.829   5.429   1.567  0.1313 -0.1504 -0.0685
13381SOL    HW141584   1.795   5.403   1.652  0.0529  1.1887  0.3312
13381SOL    HW241585   1.922   5.409   1.571  0.1269 -0.0936  0.3304
13382SOL     OW41586   1.436   0.233   9.998 -0.8837 -0.1235  1.0963
13382SOL    HW141587   1.369   0.218   9.931  0.4951  0.0323 -0.3710
13382SOL    HW241588   1.451   0.147  10.036 -0.6104 -0.5238  0.1244
13383SOL     OW41589   2.460   3.510   2.974 -0.5814  0.0735  0.5039
13383SOL    HW141590   2.394   3.441   2.982  0.0309 -0.4069  1.5327
13383SOL    HW241591   2.471   3.543   3.064 -1.6344  2.2545 -0.0897
13384SOL     OW41592   5.633   7.920   8.199 -0.0735  0.0264  0.1412
13384SOL    HW141593   5.695   7.992   8.199  0.4655 -0.3914  1.5578
13384SOL    HW241594   5.608   7.909   8.107 -0.7262  2.4531 -0.0258
13385SOL     OW41595   6.793   5.157   1.143 -0.1675  0.0449 -0.0524
13385SOL    HW141596   6.833   5.087   1.195 -0.2914 -0.7739 -1.0430
13385SOL    HW241597   6.868   5.207   1.110 -0.0452 -0.1213 -0.0295
13386SOL     OW41598   1.377   6.914   7.467 -0.7300  0.2348  0.2800
13386SOL    HW141599   1.295   6.936   7.423  0.2512  0.1174 -1.7047
13386SOL    HW241600   1.404   6.830   7.430 -0.6910 -0.7540  2.3938
13387SOL     OW41601   6.213   4.087   3.307 -0.8320 -0.0888 -0.8018
13387SOL    HW141602   6.176   4.149   3.371 -2.0211 -1.1985 -0.3848
13387SOL    HW241603   6.148   4.082   3.238 -1.3751 -1.8341 -0.2140
13388SOL     OW41604   2.928   6.287   6.606 -0.1073 -0.5602 -0.2500
13388SOL    HW141605   2.930   6.328   6.692 -0.0921 -1.2680  0.0918
13388SOL    HW241606   2.839   6.304   6.574 -0.5738 -1.4911  0.5033
13389SOL     OW41607   4.675   5.376   7.313  0.1979 -0.2001  0.2963
13389SOL    HW141608   4.653   5.384   7.220 -0.4588 -0.6568  0.4109
13389SOL    HW241609   4.674   5.282   7.330  0.0990 -0.1053  0.8192
13390SOL     OW41610   3.115   5.982   2.283  0.0226 -0.2184 -0.3915
13390SOL    HW141611   3.150   5.945   2.365  0.4290 -0.5003 -0.6891
13390SOL    HW241612   3.120   6.077   2.296  0.4524 -0.2611 -0.2403
13391SOL     OW41613   4.103   6.148   5.046 -0.2001  0.1264 -0.3278
13391SOL    HW141614   4.073   6.232   5.080 -0.0667  0.3497 -0.7567
13391SOL    HW241615   4.120   6.096   5.124 -0.1221  0.5551 -0.0541
13392SOL     OW41616   0.196   1.948   7.438 -0.7801  0.2085 -0.3214
13392SOL    HW141617   0.244   2.024   7.407 -0.9360 -0.2447 -1.7331
13392SOL    HW241618   0.179   1.966   7.530  0.1805  1.3540 -0.3518
13393SOL     OW41619   1.841   5.589   9.078  0.4078  0.3663  0.3828
13393SOL    HW141620   1.837   5.633   9.163 -0.7952  3.6813 -1.2038
13393SOL    HW241621   1.933   5.568   9.066  0.6220 -0.0928  2.4110
13394SOL     OW41622   2.432   0.032   4.933 -0.5112  0.0315  0.4542
13394SOL    HW141623   2.370   0.011   4.865  1.0237 -0.7398 -0.7640
13394SOL    HW241624   2.406  -0.021   5.008 -1.8360  0.4211  0.2900
13395SOL     OW41625   2.383   2.121   9.337 -0.7529  0.5473  0.3142
13395SOL    HW141626   2.374   2.195   9.277 -1.1180  0.6015  0.4340
13395SOL    HW241627   2.450   2.149   9.400  1.1682 -0.2848 -1.2347
13396SOL     OW41628   1.709   2.239  12.155  0.3115  1.0059  0.0590
13396SOL    HW141629   1.729   2.150  12.127  0.7054  0.2947  2.3590
13396SOL    HW241630   1.794   2.284  12.156  0.3739  0.8826  0.5394
13397SOL     OW41631   7.823   4.715   7.273 -0.1817 -0.0689  0.1297
13397SOL    HW141632   7.757   4.754   7.216 -0.2803  0.6653  0.7344
13397SOL    HW241633   7.802   4.621   7.273 -0.9943  0.1061  0.0179
13398SOL     OW41634   2.995   6.761  11.602  0.5906  0.3163  0.0728
13398SOL    HW141635   2.976   6.803  11.686 -0.5186  1.1380 -0.5595
13398SOL    HW241636   3.080   6.796  11.576 -0.0944  1.8613 -0.2126
13399SOL     OW41637   1.196   5.786   7.843  0.2310  0.3159 -0.6419
13399SOL    HW141638   1.254   5.859   7.823 -0.3743  0.9189 -0.2406
13399SOL    HW241639   1.216   5.720   7.777  1.5461  0.4082 -0.3630
13400SOL     OW41640   2.875   5.460  11.653 -0.1709 -0.5758  0.3302
13400SOL    HW141641   2.930   5.513  11.712 -0.4832 -0.0505  0.1579
13400SOL    HW241642   2.936   5.399  11.612  0.4233  0.4728 -0.4028
13401SOL     OW41643   0.279   1.945   3.140  0.5987  0.5203  0.0351
13401SOL    HW141644   0.358   1.892   3.155 -0.3632 -1.9139 -2.5195
13401SOL    HW241645   0.300   1.998   3.063  0.1344  0.7385  0.0565
13402SOL     OW41646   6.087   7.663   1.706 -0.8341 -0.4502  0.3757
13402SOL    HW141647   6.086   7.661   1.802 -1.0841  0.3289  0.3980
13402SOL    HW241648   6.089   7.571   1.681  0.6118 -0.6559  1.1247
13403SOL     OW41649   1.007   5.441   5.743 -0.0609 -0.2682  0.1490
13403SOL    HW141650   0.925   5.408   5.779  0.4599  0.0975  1.7663
13403SOL    HW241651   1.035   5.508   5.805 -0.0344  1.7890 -1.9358
13404SOL     OW41652   5.355   4.618   3.136 -0.0880  0.2324  0.4170
13404SOL    HW141653   5.294   4.644   3.205 -1.7032  0.0703 -0.8839
13404SOL    HW241654   5.330   4.672   3.060  0.5850 -0.7035 -0.5037
13405SOL     OW41655   6.289   2.595   8.889  0.1482 -0.4316  0.4244
13405SOL    HW141656   6.270   2.503   8.872  1.1013 -0.2465 -2.0678
13405SOL    HW241657   6.221   2.643   8.842 -1.0339  0.2262  2.6386
13406SOL     OW41658   7.827   4.071  11.478 -0.1122  0.6864 -0.6205
13406SOL    HW141659   7.865   4.023  11.405  1.8654  0.5854  0.3976
13406SOL    HW241660   7.873   4.155  11.478  0.9338  0.1810  1.2669
13407SOL     OW41661   2.699   7.695   8.348 -0.6698  0.3146  0.2221
13407SOL    HW141662   2.714   7.766   8.410 -2.8300 -0.0285  1.2738
13407SOL    HW241663   2.728   7.729   8.264 -2.0089  2.6309  0.6091
13408SOL     OW41664   0.749   0.381  12.147 -0.0917 -0.9793 -0.2573
13408SOL    HW141665   0.736   0.387  12.052 -1.6455 -2.8650 -0.2219
13408SOL    HW241666   0.665   0.350  12.181  0.4082 -0.2331  1.7623
13409SOL     OW41667   3.614   7.894  10.739  0.1950 -0.0919  0.0886
13409SOL    HW141668   3.678   7.881  10.809  0.6890 -0.2393 -0.3726
13409SOL    HW241669   3.602   7.989  10.735  0.0380 -0.0960  0.4838
13410SOL     OW41670   0.963   2.264   6.996  0.4608 -0.0958  0.1209
13410SOL    HW141671   1.042   2.274   6.943  0.4604  0.8142  0.2840
13410SOL    HW241672   0.930   2.177   6.974  1.5919 -0.5456  0.1733
13411SOL     OW41673   2.269   4.567   1.883  0.2426  0.4576  0.1871
13411SOL    HW141674   2.354   4.593   1.918  1.1124 -0.0789 -1.4099
13411SOL    HW241675   2.268   4.471   1.891  0.1091  0.3995 -0.4668
13412SOL     OW41676   2.907   0.851   2.900 -0.8087  1.2250  0.2815
13412SOL    HW141677   2.988   0.886   2.863  1.0818 -0.4594  2.4898
13412SOL    HW241678   2.865   0.806   2.827  2.1515 -0.9528 -0.2967
13413SOL     OW41679   1.330   0.794   8.532 -0.0581  0.0753  0.0651
13413SOL    HW141680   1.415   0.803   8.489 -0.6606  0.1260 -1.1645
13413SOL    HW241681   1.346   0.732   8.604  0.9510 -0.1219 -0.3115
13414SOL     OW41682   1.453   4.702   3.160  0.2216 -0.0725  0.2288
13414SOL    HW141683   1.476   4.610   3.174  0.5142  0.1397  1.1882
13414SOL    HW241684   1.531   4.751   3.185 -0.4245  0.5152  1.1240
13415SOL     OW41685   0.569   0.008   8.855  0.2384  0.3488  0.1748
13415SOL    HW141686   0.505  -0.016   8.787 -2.1061 -0.4631  2.5101
13415SOL    HW241687   0.552   0.100   8.873 -3.1660 -0.7053  3.4306
13416SOL     OW41688   5.042   7.125   3.926 -0.2045 -0.4583  0.5162
13416SOL    HW141689   5.108   7.153   3.863 -1.1053 -1.7276 -1.0580
13416SOL    HW241690   4.984   7.201   3.935 -1.4130 -0.9670 -2.0789
13417SOL     OW41691   6.170   4.119  11.866 -0.1277 -0.4863  0.2787
13417SOL    HW141692   6.257   4.133  11.828 -0.4559 -0.3615 -0.4355
13417SOL    HW241693   6.162   4.187  11.933 -0.0839  0.1497 -0.3601
13418SOL     OW41694   0.844   2.868   9.556  0.4898 -0.4777  0.0779
13418SOL    HW141695   0.865   2.912   9.638  3.4448 -2.2476  0.4132
13418SOL    HW241696   0.899   2.911   9.491 -0.4316 -0.3312 -0.6239
13419SOL     OW41697   2.259   0.301   2.151 -0.3836 -0.3041 -0.3286
13419SOL    HW141698   2.349   0.278   2.175 -0.0663  1.5625  0.3902
13419SOL    HW241699   2.209   0.221   2.167  0.7821 -0.7558  1.2997
13420SOL     OW41700   2.242   2.268  11.805  0.5092  0.6315 -0.0441
13420SOL    HW141701   2.152   2.262  11.837  0.5757  0.0080  0.0279
13420SOL    HW241702   2.233   2.310  11.719  0.0471 -0.2270 -0.4358
13421SOL     OW41703   2.279   3.244   1.592 -0.4130 -0.1403  0.1214
13421SOL    HW141704   2.218   3.193   1.645 -0.9622 -0.7721 -1.0734
13421SOL    HW241705   2.331   3.179   1.546  2.6316  0.3233  2.5738
13422SOL     OW41706   1.025   3.636   1.604  0.2030  0.7299  0.3172
13422SOL    HW141707   1.033   3.641   1.509  2.9054  2.3198  0.5458
13422SOL    HW241708   0.977   3.715   1.629  0.0659  0.6389  0.3473
13423SOL     OW41709   7.609   6.196   3.482 -0.1258 -0.6445  0.1783
13423SOL    HW141710   7.643   6.174   3.395  2.0289  2.7106  0.0068
13423SOL    HW241711   7.531   6.250   3.464 -1.9493 -2.9766  0.5155
13424SOL     OW41712   0.848   5.698   3.753 -0.2809  0.1536  0.1127
13424SOL    HW141713   0.831   5.775   3.698 -1.9871 -1.1127 -1.2513
13424SOL    HW241714   0.762   5.671   3.784  0.4650 -0.2484  2.0062
13425SOL     OW41715   6.495   5.429   5.582 -0.3411 -0.1137 -0.2373
13425SOL    HW141716   6.523   5.446   5.672  0.1000  1.2521 -0.6069
13425SOL    HW241717   6.424   5.491   5.566 -0.6391 -0.5697 -0.7348
13426SOL     OW41718   2.303   3.638   6.292 -0.4718  0.1943 -0.5485
13426SOL    HW141719   2.297   3.547   6.261 -3.0048  0.5698 -1.3622
13426SOL    HW241720   2.354   3.682   6.224 -2.4229  0.1197 -2.1376
13427SOL     OW41721   2.673   3.424   8.377 -0.3098 -0.5569  0.3639
13427SOL    HW141722   2.762   3.434   8.411 -0.4279 -0.6795  0.7113
13427SOL    HW241723   2.664   3.330   8.362  0.0468 -0.4092 -0.8412
13428SOL     OW41724   1.733   5.113  11.978 -0.2012 -0.0034  0.3014
13428SOL    HW141725   1.691   5.144  11.898  0.0204  0.5494  0.3908
13428SOL    HW241726   1.811   5.168  11.986  0.6190 -1.0986  0.0678
13429SOL     OW41727   3.538   0.007   3.240 -0.1251 -0.4628  0.1857
13429SOL    HW141728   3.507  -0.047   3.168  3.0983 -1.3563 -0.7041
13429SOL    HW241729   3.464   0.012   3.300 -1.8569 -2.4660 -1.6103
13430SOL     OW41730   1.263   3.903   9.774 -0.1636 -0.3508 -0.0411
13430SOL    HW141731   1.180   3.864   9.802 -0.9884 -1.4936 -3.4832
13430SOL    HW241732   1.329   3.838   9.797 -0.9547 -1.8100 -1.6417
13431SOL     OW41733   7.418   3.947  11.581  0.1583  0.3106 -0.1904
13431SOL    HW141734   7.448   3.874  11.528 -3.5115 -0.5362 -1.4335
13431SOL    HW241735   7.411   4.021  11.520  0.1305  0.6020  0.1578
13432SOL     OW41736   2.171   1.727   5.616  0.3192 -0.0873 -0.2957
13432SOL    HW141737   2.117   1.712   5.538 -0.2198  0.9565 -0.1472
13432SOL    HW241738   2.203   1.816   5.606 -1.1203  0.6939  1.4505
13433SOL     OW41739   0.020   3.587   6.057 -0.5887 -0.7960 -0.8279
13433SOL    HW141740   0.050   3.500   6.082 -1.5851 -1.3074 -1.3368
13433SOL    HW241741  -0.074   3.577   6.042 -0.6667  0.2996 -1.2118
13434SOL     OW41742   2.174   5.070  10.706 -0.1369 -0.1001  0.0088
13434SOL    HW141743   2.260   5.028  10.711 -0.8051 -1.3690  1.9763
13434SOL    HW241744   2.191   5.162  10.728  0.7561 -0.3080  0.2309
13435SOL     OW41745   7.726   4.822   8.885 -0.3521 -0.0166 -0.4035
13435SOL    HW141746   7.633   4.807   8.901 -1.4178  3.5902 -2.0945
13435SOL    HW241747   7.749   4.892   8.946  1.6600 -1.6800  0.8468
13436SOL     OW41748   1.927   4.928   8.546  0.4494  0.6310 -0.5902
13436SOL    HW141749   1.918   4.920   8.451  0.8893  2.2296 -0.7886
13436SOL    HW241750   1.888   4.847   8.580  1.9020 -0.8107 -2.1768
13437SOL     OW41751   7.030   5.920   6.870  0.1227 -0.2435 -0.4796
13437SOL    HW141752   7.106   5.941   6.816  0.2458 -1.9773 -1.0255
13437SOL    HW241753   7.067   5.878   6.948 -0.3066 -2.4730 -1.4183
13438SOL     OW41754   0.084   1.101   5.236 -0.2444  0.2160 -0.5278
13438SOL    HW141755   0.046   1.052   5.163 -2.5317 -0.1484  0.8216
13438SOL    HW241756   0.172   1.065   5.244 -0.4338 -0.7691 -2.1746
13439SOL     OW41757   1.603   7.070   5.178  0.8839 -0.4339 -0.4540
13439SOL    HW141758   1.535   7.104   5.119  0.4015 -2.3928 -1.1172
13439SOL    HW241759   1.554   7.038   5.254  1.1174 -1.1244 -0.5838
13440SOL     OW41760   4.743   2.640  10.354  0.1711  0.2073  0.0363
13440SOL    HW141761   4.725   2.729  10.326  0.6809  0.2880 -0.0442
13440SOL    HW241762   4.778   2.597  10.276  1.9764  0.5422  0.6023
13441SOL     OW41763   5.682   2.135   2.455  0.7700  0.3761  1.1313
13441SOL    HW141764   5.665   2.132   2.549 -2.3111  1.0430  0.7055
13441SOL    HW241765   5.596   2.151   2.415  1.8854 -0.2903 -1.8437
13442SOL     OW41766   7.318   5.847   8.147 -0.6543  0.3096 -0.7471
13442SOL    HW141767   7.253   5.860   8.078 -0.2073  1.3014 -1.0109
13442SOL    HW241768   7.281   5.778   8.202 -2.2766  1.2916 -0.5039
13443SOL     OW41769   6.892   5.310  10.636  1.0553  0.5210  0.2379
13443SOL    HW141770   6.976   5.353  10.649  1.1358  0.5467 -0.3263
13443SOL    HW241771   6.871   5.271  10.721  2.3230 -0.7197  0.0141
13444SOL     OW41772   6.533   4.579  10.291  0.0489 -0.4450  0.0194
13444SOL    HW141773   6.555   4.571  10.383 -1.0355  2.3245  0.6088
13444SOL    HW241774   6.438   4.587  10.289  0.1711  1.1155 -1.1492
13445SOL     OW41775   1.139   7.791   8.048  0.5650  0.1479  0.4963
13445SOL    HW141776   1.210   7.832   8.098  1.3110  1.3552 -1.4213
13445SOL    HW241777   1.182   7.717   8.004 -0.1185 -0.9995  1.6885
13446SOL     OW41778   0.435   3.227   8.414  0.1130  0.0818 -0.2725
13446SOL    HW141779   0.376   3.291   8.454  1.2312  1.0576 -0.1106
13446SOL    HW241780   0.507   3.218   8.476  0.2937 -0.8547 -0.5994
13447SOL     OW41781   7.936   7.281  10.296 -0.3783  0.4297  0.2621
13447SOL    HW141782   8.028   7.295  10.274 -0.0314 -1.7572  0.0830
13447SOL    HW241783   7.928   7.317  10.385  1.1916 -1.0161  1.0735
13448SOL     OW41784   3.613   6.874  10.485  0.5829  0.2683 -0.8577
13448SOL    HW141785   3.699   6.915  10.477  1.0304 -0.5022 -0.1501
13448SOL    HW241786   3.607   6.849  10.577  0.5366 -1.6526 -1.3436
13449SOL     OW41787   6.933   5.904   5.585  0.1600 -0.6504 -0.5075
13449SOL    HW141788   6.940   5.962   5.510  1.1077 -0.7733 -0.5314
13449SOL    HW241789   6.883   5.829   5.553 -1.4097  0.3129 -0.3617
13450SOL     OW41790   3.456   1.965   8.443 -0.4896 -0.1786 -0.3583
13450SOL    HW141791   3.435   1.878   8.477  1.9740 -0.2972  1.0579
13450SOL    HW241792   3.461   2.021   8.520  2.1814  0.2172 -0.7112
13451SOL     OW41793   2.974   5.008   3.812  0.2406 -0.0842  0.1146
13451SOL    HW141794   2.967   4.965   3.897  1.8050 -0.3692  0.1280
13451SOL    HW241795   3.056   4.977   3.776  0.5293  1.4956 -0.6827
13452SOL     OW41796   7.616   4.646   1.852  0.1270  0.3065 -0.4144
13452SOL    HW141797   7.585   4.635   1.762 -0.2144  3.3292 -0.7752
13452SOL    HW241798   7.536   4.658   1.904  0.4156  1.4372 -0.2139
13453SOL     OW41799   3.443   5.314   5.180  0.2839 -0.7485 -0.1850
13453SOL    HW141800   3.449   5.327   5.085 -1.3849  0.0569 -0.2290
13453SOL    HW241801   3.448   5.219   5.192  2.7887 -0.7660 -0.8290
13454SOL     OW41802   2.130   2.858   8.340  0.1707 -0.3057 -0.1168
13454SOL    HW141803   2.129   2.794   8.268 -1.5603  1.2871 -1.6147
13454SOL    HW241804   2.045   2.847   8.382  0.3304  0.2253  0.3462
13455SOL     OW41805   3.995   6.756   2.278 -0.7565 -0.5279  0.4667
13455SOL    HW141806   3.984   6.768   2.372 -1.8191  0.1553  0.2798
13455SOL    HW241807   3.982   6.844   2.241  0.3884 -0.6485 -0.2667
13456SOL     OW41808   4.957   5.938  11.668  0.0080  0.2154  0.1908
13456SOL    HW141809   4.916   5.856  11.696  0.5037  0.7843  2.8387
13456SOL    HW241810   4.884   5.996  11.648 -0.3771 -0.2735  0.1696
13457SOL     OW41811   7.729   7.270   9.379  0.7277  0.2733  0.5409
13457SOL    HW141812   7.663   7.243   9.316  1.4685  2.1145 -1.1461
13457SOL    HW241813   7.725   7.204   9.449 -1.3757 -0.8258 -0.5338
13458SOL     OW41814   4.039   7.115  11.801  0.4133 -0.0178 -0.1783
13458SOL    HW141815   3.970   7.081  11.857  0.1747 -1.3386 -1.2444
13458SOL    HW241816   4.072   7.039  11.753  0.2596  1.1041 -2.2030
13459SOL     OW41817   2.681   1.933   1.838 -0.0275  0.0891  0.5498
13459SOL    HW141818   2.592   1.908   1.863 -0.6802 -0.1884 -1.7480
13459SOL    HW241819   2.730   1.851   1.838 -0.8300 -0.4901 -1.8914
13460SOL     OW41820   7.172   3.623   5.446 -0.6006  0.3257 -0.0452
13460SOL    HW141821   7.213   3.553   5.395  0.7091  1.6633 -0.9025
13460SOL    HW241822   7.078   3.612   5.431 -0.6305 -2.5871  1.6522
13461SOL     OW41823   0.261   5.637   4.059  0.0093  0.0098 -0.3549
13461SOL    HW141824   0.246   5.614   3.967  0.1911  0.8426 -0.6049
13461SOL    HW241825   0.227   5.726   4.066  1.7636  0.6963 -0.1071
13462SOL     OW41826   2.759   3.680  10.771  0.2378 -0.0530  0.5056
13462SOL    HW141827   2.853   3.693  10.778 -0.0189  2.2366  0.2689
13462SOL    HW241828   2.749   3.614  10.702  1.6549 -0.7849  0.9636
13463SOL     OW41829   3.202   6.821  12.191 -0.7808 -0.1815 -0.1684
13463SOL    HW141830   3.222   6.780  12.107 -1.3262  1.1937 -1.0182
13463SOL    HW241831   3.110   6.846  12.184 -0.6688  0.4877  0.5878
13464SOL     OW41832   6.778   5.188  10.827 -0.2689 -0.3163  0.9342
13464SOL    HW141833   6.693   5.229  10.840 -0.1559 -0.2784  1.5627
13464SOL    HW241834   6.759   5.094  10.823 -0.3059 -0.3273  1.3663
13465SOL     OW41835   0.935   1.422  11.283 -0.1399  0.5750 -0.3631
13465SOL    HW141836   0.928   1.363  11.207 -1.4295  0.4491 -0.1567
13465SOL    HW241837   0.939   1.509  11.245 -0.2170  0.4788 -0.5938
13466SOL     OW41838   6.531   4.969  11.794 -0.3650 -0.3635 -0.1760
13466SOL    HW141839   6.467   5.020  11.744 -0.0669 -0.2082 -0.4037
13466SOL    HW241840   6.497   4.968  11.883 -0.8669 -0.5827 -0.3699
13467SOL     OW41841   5.350   6.934   9.952  0.0900  0.4201  0.1102
13467SOL    HW141842   5.265   6.959   9.989 -0.4287 -0.0993 -0.7063
13467SOL    HW241843   5.357   6.987   9.872  0.2254 -0.0200 -0.1732
13468SOL     OW41844   7.421   1.307   0.322 -0.6205 -0.6539  0.7489
13468SOL    HW141845   7.380   1.288   0.407  1.8507 -2.4282  1.6798
13468SOL    HW241846   7.515   1.308   0.341 -0.0819  2.2361 -1.4169
13469SOL     OW41847   7.384   1.518   8.329 -0.0553 -0.7149 -0.3222
13469SOL    HW141848   7.419   1.448   8.385  2.8173  0.1655 -0.8196
13469SOL    HW241849   7.413   1.494   8.241 -1.6678 -0.3905 -0.9755
13470SOL     OW41850   7.618   1.244   2.955  0.1200 -0.1521  0.3286
13470SOL    HW141851   7.665   1.241   2.872 -0.2026  0.4584  0.1164
13470SOL    HW241852   7.530   1.215   2.935  0.7992 -3.0504  1.0636
13471SOL     OW41853   7.711   4.124   3.596  1.0713 -0.5082  0.4648
13471SOL    HW141854   7.743   4.211   3.573 -1.1699  0.3188  0.2443
13471SOL    HW241855   7.682   4.133   3.687  1.3034 -1.1783  0.6083
13472SOL     OW41856   4.355   1.850   2.795  0.2930  0.6996  0.3444
13472SOL    HW141857   4.365   1.859   2.700 -1.4587 -0.2640  0.0356
13472SOL    HW241858   4.441   1.819   2.825  0.4890 -0.2593 -1.1172
13473SOL     OW41859   0.399   4.253   1.365  0.4234  0.4125 -0.2658
13473SOL    HW141860   0.357   4.315   1.306  0.4697  0.1358 -0.5937
13473SOL    HW241861   0.465   4.305   1.411 -2.2527  1.6121  2.5374
13474SOL     OW41862   4.275   4.623   3.210 -0.3346  0.3103  0.6382
13474SOL    HW141863   4.212   4.675   3.160 -0.7723 -0.3360  0.5100
13474SOL    HW241864   4.352   4.619   3.154  0.2391  1.9695  1.2203
13475SOL     OW41865   1.447   0.684   3.306  0.2430  0.7393  0.2300
13475SOL    HW141866   1.515   0.664   3.372 -0.2941 -1.5459  0.1955
13475SOL    HW241867   1.368   0.700   3.358  0.1979  0.6180  0.1994
13476SOL     OW41868   6.093   6.389  11.515 -0.0377  0.3090  0.5426
13476SOL    HW141869   6.181   6.396  11.477  0.3336  0.2667  1.3778
13476SOL    HW241870   6.073   6.296  11.510 -1.1251  0.5987 -2.0102
13477SOL     OW41871   5.447   4.896  12.229  0.3496 -0.2040  0.4506
13477SOL    HW141872   5.355   4.924  12.233  0.2699 -0.5642  2.2808
13477SOL    HW241873   5.448   4.826  12.165 -0.4915  0.3737 -0.2124
13478SOL     OW41874   1.462   4.420   3.214  0.1792 -0.3822  0.1559
13478SOL    HW141875   1.518   4.358   3.168  0.0045  0.3534 -1.1178
13478SOL    HW241876   1.375   4.381   3.211  0.2896 -0.6633  0.5041
13479SOL     OW41877   3.546   0.135   2.814 -0.2406  0.7562  0.0200
13479SOL    HW141878   3.494   0.215   2.813  0.6171  1.3478 -1.5594
13479SOL    HW241879   3.604   0.145   2.889 -1.8161  0.4364  1.3385
13480SOL     OW41880   0.296   5.323   5.099  0.2882  0.3545 -0.3677
13480SOL    HW141881   0.215   5.337   5.147  0.3117 -1.2785  0.2031
13480SOL    HW241882   0.364   5.361   5.155  0.3462 -1.7692  1.0753
13481SOL     OW41883   2.336   5.279   9.629 -0.1646 -1.0084  0.0067
13481SOL    HW141884   2.281   5.208   9.662 -0.4922 -1.5083 -1.5410
13481SOL    HW241885   2.405   5.236   9.579 -0.9226 -0.2532 -1.7941
13482SOL     OW41886   0.364   3.955   4.057 -0.1301  0.4862  0.1282
13482SOL    HW141887   0.404   3.932   4.141 -0.2116 -1.7614 -0.3889
13482SOL    HW241888   0.270   3.953   4.073 -0.1507 -0.1175 -0.0315
13483SOL     OW41889   0.239   2.245   2.086 -0.1093 -0.0505  0.1140
13483SOL    HW141890   0.168   2.184   2.069  1.7120 -2.9489  2.1094
13483SOL    HW241891   0.197   2.331   2.083 -3.3554 -1.4989 -0.3454
13484SOL     OW41892   0.875   7.325   7.795 -0.5293 -0.8697 -0.4070
13484SOL    HW141893   0.822   7.325   7.875 -1.7706  0.7789 -1.1809
13484SOL    HW241894   0.919   7.410   7.796  0.0801 -1.1635 -1.1049
13485SOL     OW41895   2.915   1.924  11.502 -0.6391  0.5510 -0.2410
13485SOL    HW141896   2.975   1.852  11.522  0.5651  1.4351 -0.5772
13485SOL    HW241897   2.948   1.998  11.552 -1.4942  1.0528 -0.3866
13486SOL     OW41898   2.490   6.154  12.075 -0.1280  0.2138 -0.2313
13486SOL    HW141899   2.531   6.232  12.113 -2.8310  2.3002 -1.2374
13486SOL    HW241900   2.455   6.107  12.151  2.8017 -0.9410  0.5195
13487SOL     OW41901   5.697   4.020   7.199 -0.1435 -0.8367  0.4763
13487SOL    HW141902   5.697   3.940   7.147 -0.0176 -0.5556  0.0412
13487SOL    HW241903   5.654   4.085   7.144  1.9207  0.0401 -0.2205
13488SOL     OW41904   4.237   4.411  10.728  0.0410  0.7455  0.0827
13488SOL    HW141905   4.256   4.393  10.636 -0.8153 -0.6812  0.1580
13488SOL    HW241906   4.316   4.452  10.762  1.1841 -0.6946 -0.7654
13489SOL     OW41907   5.484   0.610   1.393  0.3047 -0.1238 -0.0303
13489SOL    HW141908   5.409   0.557   1.366  0.6406 -0.1833 -0.8889
13489SOL    HW241909   5.453   0.700   1.387  0.3353 -0.1427 -0.5018
13490SOL     OW41910   4.684   6.558  10.018  0.4301  0.6927  0.1962
13490SOL    HW141911   4.729   6.545   9.935 -0.1466  1.4528 -0.2503
13490SOL    HW241912   4.640   6.475  10.036  0.3154  0.6232 -0.4087
13491SOL     OW41913   0.780   6.745  12.350 -0.6661 -0.2405  0.5190
13491SOL    HW141914   0.813   6.732  12.439 -1.0767 -1.2253  0.5344
13491SOL    HW241915   0.691   6.778  12.361 -0.4594  0.3370  0.4724
13492SOL     OW41916   3.409   0.561   1.444  0.0777 -0.3583 -0.5511
13492SOL    HW141917   3.406   0.472   1.481 -1.2608 -0.2448 -0.3177
13492SOL    HW241918   3.332   0.564   1.386  0.4583  0.4574 -1.0219
13493SOL     OW41919   5.206   3.384   4.617  0.0736 -0.1261  0.2009
13493SOL    HW141920   5.187   3.353   4.528  0.2677  0.8671 -0.2054
13493SOL    HW241921   5.293   3.349   4.636 -0.1234 -0.6547  0.1533
13494SOL     OW41922   1.200   5.988   2.128 -0.3104  0.1821 -0.1890
13494SOL    HW141923   1.234   6.044   2.198 -0.8689 -0.6473  0.7578
13494SOL    HW241924   1.214   6.040   2.048 -1.1723  1.8617  0.6943
13495SOL     OW41925   0.188   6.639   4.668  0.1349  0.3646  0.0036
13495SOL    HW141926   0.195   6.734   4.654  0.6899  0.1776 -1.1022
13495SOL    HW241927   0.116   6.612   4.611  1.0361 -0.1046 -0.9443
13496SOL     OW41928   2.132   1.113   2.561 -0.2935  0.3227 -0.0934
13496SOL    HW141929   2.082   1.124   2.641  1.4765  0.2246  1.0870
13496SOL    HW241930   2.148   1.202   2.530  0.0391  0.4283  0.3597
13497SOL     OW41931   1.594   2.623   3.678  0.6619  0.4154 -0.2392
13497SOL    HW141932   1.499   2.615   3.676  0.6820 -1.6145  1.9690
13497SOL    HW241933   1.618   2.653   3.590 -1.9429  0.1101 -1.1298
13498SOL     OW41934   2.079   1.374   4.776  0.2505  0.0645  0.0102
13498SOL    HW141935   2.167   1.343   4.755  1.4047  1.4239  2.3774
13498SOL    HW241936   2.057   1.328   4.857 -0.7127  0.6137  0.0653
13499SOL     OW41937   0.185   3.058   6.590 -0.1961 -0.0864 -0.7754
13499SOL    HW141938   0.246   3.040   6.661 -2.1624 -1.7303  0.6226
13499SOL    HW241939   0.110   3.100   6.633 -1.0398 -0.2501 -2.0262
13500SOL     OW41940   0.466   4.067  10.770 -0.4370 -0.1798  0.6830
13500SOL    HW141941   0.404   4.051  10.841 -0.6435 -0.0826  0.5290
13500SOL    HW241942   0.543   4.015  10.792  0.2891  1.3385  1.9961
13501SOL     OW41943   4.250   4.843  10.937  0.4655 -0.0785  0.0865
13501SOL    HW141944   4.269   4.751  10.955  1.6914  0.2957  0.8674
13501SOL    HW241945   4.326   4.890  10.971 -0.2813  1.2531 -0.0078
13502SOL     OW41946   4.468   2.794   9.607  0.3325 -0.0842 -0.3826
13502SOL    HW141947   4.525   2.764   9.537  0.1462  0.3287 -0.7138
13502SOL    HW241948   4.428   2.874   9.573  1.3586  0.9530  0.7287
13503SOL     OW41949   6.461   0.228   0.869 -0.0058  0.3328 -0.1645
13503SOL    HW141950   6.387   0.254   0.816  0.1243 -1.1049 -1.1305
13503SOL    HW241951   6.425   0.214   0.956 -0.9417 -0.5633 -0.6729
13504SOL     OW41952   6.520   5.541   9.535  0.8062 -1.0477 -0.2668
13504SOL    HW141953   6.425   5.546   9.526  0.7690  0.3998  0.5896
13504SOL    HW241954   6.553   5.538   9.445 -0.0394 -1.5347 -0.5668
13505SOL     OW41955   0.994   6.948   3.309 -0.2125 -0.7584 -0.2726
13505SOL    HW141956   0.975   6.857   3.286  1.0717 -1.2945  0.6673
13505SOL    HW241957   0.947   6.962   3.392 -2.0874  0.1212 -1.4069
13506SOL     OW41958   2.667   5.208   5.726  0.0406 -0.3277  0.5689
13506SOL    HW141959   2.588   5.195   5.673  0.3340 -0.6426  0.2059
13506SOL    HW241960   2.670   5.132   5.783  0.7411 -0.9473 -0.2658
13507SOL     OW41961   0.835   4.480   8.682 -0.1261  0.0014  0.8299
13507SOL    HW141962   0.840   4.501   8.775  0.9600 -1.3860  1.1284
13507SOL    HW241963   0.773   4.542   8.646 -0.4894  0.6280  2.4695
13508SOL     OW41964   3.470   3.017   6.769  0.2381  0.0875  0.2108
13508SOL    HW141965   3.397   3.067   6.733  0.3300 -0.1469 -0.3110
13508SOL    HW241966   3.429   2.957   6.831 -0.2581 -1.2325 -1.3007
13509SOL     OW41967   0.131   7.936   3.423 -0.2550  0.1049 -0.2528
13509SOL    HW141968   0.045   7.937   3.380 -0.8193 -1.3669  0.7396
13509SOL    HW241969   0.194   7.938   3.351 -1.0234  2.8382 -0.9804
13510SOL     OW41970   0.721   2.063   9.911  0.2788  0.2527 -0.1462
13510SOL    HW141971   0.786   2.107   9.858  0.9052 -1.1068 -0.5632
13510SOL    HW241972   0.772   2.008   9.971 -0.4142  1.5477  1.7238
13511SOL     OW41973   3.193   6.044   4.168  0.1623 -0.0509 -0.1480
13511SOL    HW141974   3.280   6.085   4.163 -0.0274  0.2795 -0.8862
13511SOL    HW241975   3.207   5.966   4.223  1.1779 -0.5917 -1.1152
13512SOL     OW41976   6.108   0.037   8.175 -0.8914  0.4320  0.2499
13512SOL    HW141977   6.087   0.129   8.158  2.8244  0.9926 -2.7627
13512SOL    HW241978   6.119  -0.001   8.088 -1.2261 -2.6489  1.4234
13513SOL     OW41979   0.511   5.330   6.579 -0.0686 -0.1092 -0.1598
13513SOL    HW141980   0.534   5.404   6.522 -1.3483  0.6563  0.2557
13513SOL    HW241981   0.569   5.260   6.552 -0.5417  0.2642 -2.3446
13514SOL     OW41982   6.750   3.983  12.429  0.0938 -0.1739 -0.4407
13514SOL    HW141983   6.798   4.039  12.490 -1.2121 -0.0051  0.4699
13514SOL    HW241984   6.773   4.017  12.342 -1.3412  2.4202  0.0911
13515SOL     OW41985   3.218   6.154   6.350 -0.1823 -0.4256  0.6080
13515SOL    HW141986   3.292   6.098   6.328 -0.0298 -0.0489  0.1564
13515SOL    HW241987   3.147   6.123   6.294  0.1791  0.4699 -0.3887
13516SOL     OW41988   5.114   7.936   6.539  0.0258  0.0278  0.3442
13516SOL    HW141989   5.114   8.028   6.513 -1.5931 -0.6611 -2.5365
13516SOL    HW241990   5.207   7.914   6.547  0.4586  1.6933  0.2939
13517SOL     OW41991   2.910   0.682   5.675  0.2895 -0.2098  0.0785
13517SOL    HW141992   2.942   0.635   5.598 -1.1324 -1.3478  0.1517
13517SOL    HW241993   2.973   0.661   5.743  0.6962 -0.4698 -0.3684
13518SOL     OW41994   2.487   6.838   7.063 -0.3391 -0.3095 -0.2258
13518SOL    HW141995   2.507   6.900   7.133 -0.3325 -0.4978 -0.0581
13518SOL    HW241996   2.455   6.892   6.991 -0.4490 -0.1239 -0.0380
13519SOL     OW41997   0.479   2.400   4.669 -0.3062 -0.3185 -0.8425
13519SOL    HW141998   0.501   2.483   4.626  1.3666 -0.3670 -0.1533
13519SOL    HW241999   0.421   2.424   4.741  0.7852  0.3932 -0.1631
13520SOL     OW42000   2.818   1.327   8.674 -0.4864 -0.2695 -0.5051
13520SOL    HW142001   2.912   1.349   8.668 -0.4678  0.2519  1.1573
13520SOL    HW242002   2.773   1.410   8.657 -0.6710 -0.5063 -1.2351
13521SOL     OW42003   5.676   4.873   8.128  0.1106  0.1144  0.1383
13521SOL    HW142004   5.632   4.831   8.053  2.1929 -0.1070 -1.0365
13521SOL    HW242005   5.742   4.929   8.088  0.2612  1.1853  1.8192
13522SOL     OW42006   2.364   7.592  10.723  0.8657 -0.0136 -0.7046
13522SOL    HW142007   2.367   7.537  10.802 -0.0469  1.3992  0.3689
13522SOL    HW242008   2.330   7.534  10.655  2.4058 -1.4945 -0.2987
13523SOL     OW42009   6.330   0.516   6.476 -0.4001  0.2187 -0.5930
13523SOL    HW142010   6.280   0.571   6.416 -2.3487  0.1948  0.9156
13523SOL    HW242011   6.375   0.579   6.533 -0.8995  0.2647 -0.2411
13524SOL     OW42012   4.481   7.465   0.178 -0.1156  0.3110 -0.4198
13524SOL    HW142013   4.406   7.416   0.211  0.0330 -0.5893 -1.3670
13524SOL    HW242014   4.463   7.556   0.204 -0.1092 -0.2836  1.8648
13525SOL     OW42015   2.647   7.694   9.985  0.2364 -0.0687  0.2047
13525SOL    HW142016   2.652   7.719   9.892 -0.6183 -0.1238  0.1355
13525SOL    HW242017   2.641   7.778  10.031  0.6382 -0.0420  0.2125
13526SOL     OW42018   2.273   0.530   1.971 -0.2259 -0.6159 -0.3617
13526SOL    HW142019   2.276   0.438   1.995  0.2973 -0.0233  2.1397
13526SOL    HW242020   2.345   0.542   1.909  1.2671 -1.4678  1.1277
13527SOL     OW42021   5.723   4.034  10.248  0.4648 -0.1892 -0.4417
13527SOL    HW142022   5.685   4.079  10.173 -0.3197 -0.8321 -0.4424
13527SOL    HW242023   5.695   4.086  10.324  1.5857  0.6851 -0.6028
13528SOL     OW42024   5.853   5.186   4.537  0.0858 -0.1136 -0.3219
13528SOL    HW142025   5.916   5.125   4.498 -0.0742 -0.6007  0.1611
13528SOL    HW242026   5.800   5.131   4.596 -0.7409  0.2970 -0.6605
13529SOL     OW42027   3.234   6.010  10.889  0.9164 -0.0987  0.6859
13529SOL    HW142028   3.277   5.933  10.852  0.8147  0.5763 -0.9350
13529SOL    HW242029   3.237   5.997  10.984  2.5203 -1.2114  0.5130
13530SOL     OW42030   7.546   4.949   2.798 -0.0139  0.1903 -0.0630
13530SOL    HW142031   7.570   4.896   2.722  2.5605 -0.8055  1.3137
13530SOL    HW242032   7.580   5.036   2.778 -0.4879  0.2648 -0.5665
13531SOL     OW42033   6.735   2.390   1.145  0.1743 -0.4083  0.3281
13531SOL    HW142034   6.816   2.438   1.129  0.4883 -0.9317  0.3357
13531SOL    HW242035   6.675   2.456   1.179  1.0915 -0.3267  1.8771
13532SOL     OW42036   2.887   2.321  10.426  0.6180 -0.6661 -0.1876
13532SOL    HW142037   2.899   2.355  10.515 -0.2779 -0.2500 -0.2101
13532SOL    HW242038   2.950   2.369  10.373  0.3951 -0.1070  0.0424
13533SOL     OW42039   5.472   2.546   1.305  0.0749  0.6668  0.0993
13533SOL    HW142040   5.504   2.493   1.378  1.2749 -0.3038 -1.0713
13533SOL    HW242041   5.398   2.595   1.341 -1.5995 -2.3581  1.0885
13534SOL     OW42042   1.865   3.183   0.526 -0.0823 -0.5178  0.1398
13534SOL    HW142043   1.858   3.245   0.599  0.1671  0.6030 -0.7662
13534SOL    HW242044   1.777   3.182   0.487  0.2906  0.4155 -0.7505
13535SOL     OW42045   3.304   3.285   3.702 -0.0780 -0.3595 -0.3784
13535SOL    HW142046   3.374   3.350   3.694  0.8602 -0.8367  2.8198
13535SOL    HW242047   3.230   3.334   3.738 -0.3040 -0.5253 -0.6160
13536SOL     OW42048   1.863   4.661   3.249 -0.2351 -0.0917 -0.2073
13536SOL    HW142049   1.861   4.613   3.332 -0.2833 -0.3886 -0.3774
13536SOL    HW242050   1.899   4.598   3.186  1.3757  0.6378 -0.0856
13537SOL     OW42051   6.371   7.641   3.769  0.8102 -0.0791  0.1901
13537SOL    HW142052   6.410   7.582   3.833  0.2616  0.4376  1.0239
13537SOL    HW242053   6.374   7.727   3.811 -0.9172  0.0256  0.1528
13538SOL     OW42054   7.453   3.042   3.899  0.0228  0.5909 -0.3171
13538SOL    HW142055   7.477   2.977   3.965 -1.1518 -0.7480 -1.1717
13538SOL    HW242056   7.388   3.097   3.942  0.7897  1.0420  0.3024
13539SOL     OW42057   7.702   5.398   3.527  0.1080 -0.3505  0.2828
13539SOL    HW142058   7.791   5.363   3.539  0.1872 -0.7280 -1.1910
13539SOL    HW242059   7.688   5.454   3.603  1.3701 -0.7793  0.8615
13540SOL     OW42060   0.101   6.171   9.858 -0.1266 -0.4129  0.1377
13540SOL    HW142061   0.058   6.134   9.781  1.0594  0.8138 -1.1637
13540SOL    HW242062   0.185   6.125   9.865 -0.4713 -0.9481  1.1084
13541SOL     OW42063   5.176   5.377   8.213  0.0789  0.5588 -0.2384
13541SOL    HW142064   5.084   5.350   8.217  0.1673 -0.1836 -2.2666
13541SOL    HW242065   5.180   5.441   8.143  1.1564  0.4182 -0.3198
13542SOL     OW42066   2.624   3.966   3.921 -0.6224 -0.5265 -0.2944
13542SOL    HW142067   2.542   3.944   3.877 -2.4509  0.4875  2.4013
13542SOL    HW242068   2.668   3.882   3.933 -1.1075 -1.0612 -1.9627
13543SOL     OW42069   5.981   0.717   9.579  0.0115 -0.0099  0.0291
13543SOL    HW142070   5.893   0.713   9.542  0.0731 -0.1525 -0.1039
13543SOL    HW242071   5.977   0.664   9.658  0.1184 -0.4637 -0.2678
13544SOL     OW42072   4.664   3.132  11.463  0.4092 -0.3275 -0.0378
13544SOL    HW142073   4.659   3.212  11.514  1.6120  0.4462 -1.0795
13544SOL    HW242074   4.675   3.063  11.529  3.5352  0.7866  0.7945
13545SOL     OW42075   0.711   6.087   4.703  0.2223 -0.1360 -0.3842
13545SOL    HW142076   0.653   6.122   4.771  0.3326 -1.9754  0.7382
13545SOL    HW242077   0.671   6.113   4.621  0.1493  2.2890  0.3333
13546SOL     OW42078   3.602   0.619   7.801  0.0391  0.2134  0.5924
13546SOL    HW142079   3.508   0.634   7.800  0.3570  2.6718  1.0589
13546SOL    HW242080   3.612   0.531   7.837 -2.0019  0.9011  3.1507
13547SOL     OW42081   3.507   0.977  11.544 -0.0012  0.4518 -0.3852
13547SOL    HW142082   3.545   1.042  11.486 -2.3337  2.1801 -0.1232
13547SOL    HW242083   3.468   0.912  11.485 -0.2923  0.9310 -0.7288
13548SOL     OW42084   1.249   3.176   7.436 -0.0612  0.0151  0.3443
13548SOL    HW142085   1.298   3.219   7.366  0.5342  1.5790  1.6422
13548SOL    HW242086   1.158   3.177   7.407 -0.0031  1.8619  0.1422
13549SOL     OW42087   6.425   4.932   5.558 -0.3590 -0.0819 -0.0859
13549SOL    HW142088   6.386   4.862   5.610  1.8406 -1.2200  0.1311
13549SOL    HW242089   6.513   4.901   5.537 -0.0076  1.7871 -1.6770
13550SOL     OW42090   6.123   7.810   6.258  0.4361  0.3112 -0.1924
13550SOL    HW142091   6.131   7.781   6.349  0.2683 -0.1302 -0.3140
13550SOL    HW242092   6.200   7.864   6.242  1.3987 -1.0598 -0.3246
13551SOL     OW42093   6.285   3.360   9.986 -0.5274  0.2806 -0.0938
13551SOL    HW142094   6.271   3.395   9.898  1.4560  0.6528 -0.3109
13551SOL    HW242095   6.329   3.431  10.033 -1.3501  0.0019  1.1401
13552SOL     OW42096   3.633   3.411   3.439 -0.5226  0.3901 -0.0820
13552SOL    HW142097   3.616   3.363   3.358 -1.2208 -0.8234  0.7472
13552SOL    HW242098   3.721   3.385   3.464 -0.8314 -0.3619  0.2695
13553SOL     OW42099   4.534   2.670   4.651  0.1661 -0.5268 -0.1788
13553SOL    HW142100   4.572   2.648   4.566  1.3946 -1.6228  0.6234
13553SOL    HW242101   4.469   2.602   4.667  0.5798 -0.8503  0.1533
13554SOL     OW42102   5.823   6.490  10.107 -0.5923 -0.3807  0.0683
13554SOL    HW142103   5.855   6.463  10.021  0.0557 -0.7783  0.4313
13554SOL    HW242104   5.897   6.534  10.147 -0.9745  0.0306  0.3284
13555SOL     OW42105   6.817   3.538   0.144  0.0193  0.0142  0.1718
13555SOL    HW142106   6.792   3.628   0.123  0.9630 -0.0850 -1.5617
13555SOL    HW242107   6.787   3.487   0.069  1.4621 -0.7625  0.0825
13556SOL     OW42108   3.010   6.584   5.135  0.0041  0.4794 -0.1212
13556SOL    HW142109   3.062   6.663   5.149 -0.7878  0.9135  0.4862
13556SOL    HW242110   2.919   6.614   5.141 -0.3517 -0.1045 -2.0441
13557SOL     OW42111   3.984   6.081   7.340  0.2324  0.0593  0.3225
13557SOL    HW142112   4.079   6.078   7.326  0.1377 -1.3346 -0.2742
13557SOL    HW242113   3.953   6.147   7.278  0.8810  1.0922  1.0744
13558SOL     OW42114   5.094   7.937   5.062 -0.0430 -0.2312  0.1801
13558SOL    HW142115   5.177   7.950   5.107 -0.0134 -1.5059  0.5393
13558SOL    HW242116   5.102   7.851   5.020 -0.5063  0.4168 -1.3199
13559SOL     OW42117   3.844   2.475   0.915  0.0786 -0.2694 -0.1088
13559SOL    HW142118   3.876   2.515   0.995 -1.4959 -0.4139  0.6220
13559SOL    HW242119   3.833   2.382   0.937  1.4775 -0.7124 -1.0964
13560SOL     OW42120   0.927   3.458   2.100  0.4247  0.0133 -0.0418
13560SOL    HW142121   0.970   3.499   2.024  0.1151  1.1574  0.3795
13560SOL    HW242122   0.964   3.504   2.175 -2.2216  1.7513  0.3094
13561SOL     OW42123   3.165   3.508  10.126 -0.2956 -0.6710  0.0466
13561SOL    HW142124   3.154   3.593  10.084 -1.1018 -0.8412 -0.0983
13561SOL    HW242125   3.076   3.481  10.151 -0.0265 -1.3606  0.3040
13562SOL     OW42126   3.693   7.618  10.343  0.2009 -0.3205  0.6610
13562SOL    HW142127   3.655   7.682  10.402  2.0273  1.4294  0.0773
13562SOL    HW242128   3.697   7.663  10.258 -2.1946 -2.6889 -0.8591
13563SOL     OW42129   7.929   3.172   8.060 -0.7028 -0.1367 -0.3239
13563SOL    HW142130   8.015   3.197   8.024  0.1117 -0.0757  1.5740
13563SOL    HW242131   7.946   3.091   8.107 -1.9384 -0.6988 -0.8251
13564SOL     OW42132   7.234   7.636   4.064  0.0025 -0.2876 -0.2357
13564SOL    HW142133   7.306   7.605   4.120  0.4590  1.8951  0.4753
13564SOL    HW242134   7.273   7.706   4.012 -1.2457 -0.1184 -0.9706
13565SOL     OW42135   3.019   7.966   3.802  0.3201 -0.0255  0.3514
13565SOL    HW142136   2.992   7.954   3.711  1.3587  0.1022  0.0130
13565SOL    HW242137   3.109   8.000   3.796  1.2131 -2.0244  1.4209
13566SOL     OW42138   3.680   4.380   7.348 -0.0399  0.6734  0.1022
13566SOL    HW142139   3.742   4.308   7.362 -0.0004  0.7516  0.3299
13566SOL    HW242140   3.727   4.459   7.374  0.0535  0.8303 -0.5290
13567SOL     OW42141   0.862   4.492   4.556  0.4586  0.5843  0.4367
13567SOL    HW142142   0.826   4.416   4.510  1.7352  0.7071 -0.8018
13567SOL    HW242143   0.859   4.467   4.649  2.4910 -1.7288 -0.0376
13568SOL     OW42144   4.140   7.840   7.289 -0.0376  0.1963 -0.1049
13568SOL    HW142145   4.149   7.889   7.207  1.8621  1.1767  0.6117
13568SOL    HW242146   4.183   7.756   7.272 -0.9320 -0.1893 -0.5258
13569SOL     OW42147   4.467   0.263   2.473 -0.0946 -0.8242  0.3181
13569SOL    HW142148   4.403   0.208   2.428 -0.5949  0.2021 -0.2666
13569SOL    HW242149   4.541   0.267   2.413  0.9116 -2.6924  1.3542
13570SOL     OW42150   0.592   1.101   9.426 -0.5798  0.7269 -0.5677
13570SOL    HW142151   0.618   1.009   9.429 -2.0980  0.2126 -1.7970
13570SOL    HW242152   0.641   1.137   9.352  0.9707  1.2744  0.6702
13571SOL     OW42153   1.044   3.728   1.029 -0.4316 -0.3450  0.3385
13571SOL    HW142154   1.084   3.804   0.987 -1.2549 -0.7566 -1.2748
13571SOL    HW242155   0.995   3.765   1.103 -0.1144  0.5938  0.0940
13572SOL     OW42156   7.961   7.739  10.420 -0.1414  0.4184 -0.7298
13572SOL    HW142157   8.019   7.679  10.466  1.1620  0.0613 -2.6946
13572SOL    HW242158   7.986   7.730  10.328 -1.6723  2.0882 -1.3671
13573SOL     OW42159   1.669   2.405  10.629  0.2476 -0.0918  0.0884
13573SOL    HW142160   1.649   2.348  10.556 -0.3002  1.2862 -0.8818
13573SOL    HW242161   1.757   2.379  10.657  0.8552 -0.0326 -1.6803
13574SOL     OW42162   7.628   0.538   3.145 -0.3296 -0.5729 -0.0096
13574SOL    HW142163   7.594   0.616   3.188  0.5930 -0.1071 -0.0962
13574SOL    HW242164   7.722   0.552   3.140 -0.4304 -0.2834 -2.7600
13575SOL     OW42165   1.127   7.207   7.769 -0.6079  0.1942 -0.6484
13575SOL    HW142166   1.122   7.116   7.799 -0.9115  1.0715  2.2848
13575SOL    HW242167   1.038   7.240   7.778 -0.0228  1.4934  1.1354
13576SOL     OW42168   5.431   7.613   5.767 -0.4387  0.2077  0.5993
13576SOL    HW142169   5.360   7.551   5.751 -1.6503  2.0890 -2.1258
13576SOL    HW242170   5.387   7.691   5.801  0.2730  1.3125 -0.8731
13577SOL     OW42171   0.316   7.074   2.621  0.1087 -0.1083 -0.2535
13577SOL    HW142172   0.332   7.115   2.537 -0.4212 -0.6732 -0.6404
13577SOL    HW242173   0.402   7.048   2.653  0.3934  0.8460 -0.2315
13578SOL     OW42174   5.610   1.226   7.656  0.4266  0.4740 -0.2323
13578SOL    HW142175   5.640   1.282   7.585  0.1270  1.2146  0.2146
13578SOL    HW242176   5.557   1.159   7.613  0.5902  0.6697 -0.7490
13579SOL     OW42177   7.178   0.932   2.883 -0.0136 -0.1600 -0.6029
13579SOL    HW142178   7.103   0.881   2.853  0.0051 -0.3353 -0.3501
13579SOL    HW242179   7.148   0.975   2.963  1.0608 -2.5732  1.2082
13580SOL     OW42180   2.372   7.955   0.214  0.0360  0.4523  0.0650
13580SOL    HW142181   2.410   8.042   0.200 -1.6848  1.1401 -0.6771
13580SOL    HW242182   2.430   7.895   0.168  1.8480  1.0347  1.4742
13581SOL     OW42183   3.761   5.499   3.656 -0.1957 -0.2251  0.3004
13581SOL    HW142184   3.854   5.478   3.659 -0.1561  0.0419  1.6118
13581SOL    HW242185   3.717   5.414   3.655  0.0477 -0.3511  0.2535
13582SOL     OW42186   1.725   3.294  11.744 -0.1834 -0.1981 -0.0256
13582SOL    HW142187   1.674   3.285  11.825  0.2226  1.0393  0.3948
13582SOL    HW242188   1.804   3.243  11.760  0.2999  0.7508  0.7330
13583SOL     OW42189   0.923   3.296   3.261  0.9266  0.1391 -0.2037
13583SOL    HW142190   0.907   3.239   3.336 -0.3514 -0.4984 -0.9345
13583SOL    HW242191   0.932   3.237   3.187 -1.3615  0.8533 -1.1513
13584SOL     OW42192   3.381   2.194   5.815 -0.0756 -0.1251  0.2023
13584SOL    HW142193   3.360   2.100   5.821 -0.5251 -0.0685 -0.3825
13584SOL    HW242194   3.335   2.234   5.889 -0.3568 -0.2928  0.1223
13585SOL     OW42195   4.441   1.252  11.491  0.5031 -0.0219  0.3189
13585SOL    HW142196   4.498   1.181  11.462 -0.4477 -0.8759  0.4546
13585SOL    HW242197   4.417   1.298  11.411  0.9888  0.0350  0.2063
13586SOL     OW42198   5.008   3.808   5.096  0.3557 -0.4130 -0.0646
13586SOL    HW142199   5.102   3.798   5.107  0.6573  2.1274  0.3126
13586SOL    HW242200   4.998   3.857   5.014 -0.6056 -0.4292  0.0326
13587SOL     OW42201   2.699   4.450   9.268 -0.2656  0.2652 -0.3002
13587SOL    HW142202   2.763   4.520   9.260 -0.7106  0.5116 -2.1577
13587SOL    HW242203   2.629   4.486   9.322  0.0128  0.8700 -0.3431
13588SOL     OW42204   5.413   1.815   8.187 -0.3610 -0.6458  0.0003
13588SOL    HW142205   5.450   1.904   8.192 -3.3743  0.6952  2.8807
13588SOL    HW242206   5.362   1.815   8.106 -1.6084  0.9545  0.7110
13589SOL     OW42207   2.401   3.329   6.913  0.2947  0.1444  0.3352
13589SOL    HW142208   2.463   3.381   6.861  0.1966 -0.6821 -0.6486
13589SOL    HW242209   2.451   3.303   6.990  1.1808 -0.4659 -0.4213
13590SOL     OW42210   0.823   4.618   9.218  0.4063 -0.0056 -0.2173
13590SOL    HW142211   0.773   4.565   9.280  0.2815 -0.2753 -0.5516
13590SOL    HW242212   0.912   4.583   9.222  0.7254  0.8475  0.8128
13591SOL     OW42213   4.038   7.222   8.359  0.3278  0.5476 -0.1650
13591SOL    HW142214   4.000   7.146   8.403  1.8131 -0.5815 -0.7701
13591SOL    HW242215   4.016   7.295   8.417  2.6274 -0.9183  2.8630
13592SOL     OW42216   2.390   6.092   7.739  0.2272  0.2669  0.1109
13592SOL    HW142217   2.398   6.114   7.646 -0.9212 -0.0885 -0.0903
13592SOL    HW242218   2.299   6.113   7.761  0.0275 -1.1667  0.7497
13593SOL     OW42219   0.492   5.155   9.125 -0.8788  0.1138 -0.3890
13593SOL    HW142220   0.441   5.113   9.195 -1.2007  0.0929 -0.6363
13593SOL    HW242221   0.574   5.181   9.168 -1.0186 -0.0205 -0.0354
13594SOL     OW42222   0.210   7.832   4.097  0.3819 -0.0922  0.1190
13594SOL    HW142223   0.156   7.876   4.163 -0.2432  0.3052 -0.6320
13594SOL    HW242224   0.232   7.901   4.035  1.9031 -0.2206  0.4830
13595SOL     OW42225   1.029   1.229   0.691  0.4589  0.6111 -0.0887
13595SOL    HW142226   1.004   1.214   0.782  0.8347 -0.9088 -0.2125
13595SOL    HW242227   0.973   1.301   0.662 -1.3219 -0.4332  0.6476
13596SOL     OW42228   6.019   5.572   3.081  0.1460 -0.0565 -0.0954
13596SOL    HW142229   5.966   5.536   3.010 -0.0909  0.1678 -0.0356
13596SOL    HW242230   6.039   5.662   3.054  1.1044 -0.3601 -0.4482
13597SOL     OW42231   2.013   4.843   8.154  0.1643  0.1976  0.1016
13597SOL    HW142232   1.990   4.783   8.084  1.0659 -1.4611  1.1426
13597SOL    HW242233   1.929   4.873   8.189 -0.3676 -1.6435  0.4958
13598SOL     OW42234   6.789   7.586   2.098 -0.1183  0.2688 -0.0086
13598SOL    HW142235   6.821   7.508   2.053 -1.3382 -0.5644  0.5219
13598SOL    HW242236   6.862   7.614   2.153  0.4582 -0.2756 -0.4890
13599SOL     OW42237   4.562   6.994   1.485  0.0650  0.4699  0.1865
13599SOL    HW142238   4.633   6.966   1.427 -1.0120  0.1660 -1.0321
13599SOL    HW242239   4.585   6.956   1.570  1.2077  0.1368 -0.2501
13600SOL     OW42240   1.074   3.243   0.601  0.2127 -0.0192  0.2070
13600SOL    HW142241   1.054   3.177   0.535 -0.2658  0.0138  0.3184
13600SOL    HW242242   1.130   3.198   0.664  0.9524  0.0409 -0.3930
13601SOL     OW42243   4.333   7.583   3.451  0.1801  0.1962 -0.3792
13601SOL    HW142244   4.317   7.543   3.537  2.1022  0.7901  0.3075
13601SOL    HW242245   4.421   7.555   3.427  1.5183  3.5475 -0.0128
13602SOL     OW42246   0.709   1.879   0.411 -0.0036 -0.0848  0.0260
13602SOL    HW142247   0.615   1.881   0.424 -0.1715  2.2581 -1.0859
13602SOL    HW242248   0.727   1.790   0.381 -1.7371 -0.7732  0.9284
13603SOL     OW42249   5.998   6.084  11.536 -0.6303 -0.0108  0.4205
13603SOL    HW142250   5.937   6.083  11.462 -1.3336 -2.5400  0.9153
13603SOL    HW242251   5.948   6.121  11.608 -0.0243  2.2227 -0.2256
13604SOL     OW42252   0.443   1.878   7.815  0.3035  0.3279 -0.4752
13604SOL    HW142253   0.417   1.865   7.724 -0.8678 -0.8620 -0.0154
13604SOL    HW242254   0.523   1.825   7.825 -1.2112 -2.0635 -0.1159
13605SOL     OW42255   7.175   7.187   6.273  0.0990  0.6462 -0.1795
13605SOL    HW142256   7.249   7.237   6.307 -0.5050  2.8084 -1.8334
13605SOL    HW242257   7.098   7.237   6.299 -0.6015  0.0793 -1.0963
13606SOL     OW42258   5.496   0.105   5.903 -0.4397  0.1668 -0.2020
13606SOL    HW142259   5.575   0.053   5.917  0.9356  1.8456 -1.3264
13606SOL    HW242260   5.526   0.181   5.853 -2.4773  1.6806  0.7306
13607SOL     OW42261   6.463   4.069   5.551 -0.4284  0.0251 -0.1979
13607SOL    HW142262   6.386   4.031   5.593  0.3593 -0.5872  0.7329
13607SOL    HW242263   6.477   4.015   5.473 -1.0390  0.2365 -0.4504
13608SOL     OW42264   2.935   0.447   4.157  0.5754 -0.2463  0.4951
13608SOL    HW142265   2.842   0.429   4.140  0.4561  0.5179  0.2880
13608SOL    HW242266   2.981   0.375   4.114  0.0402 -1.5286  1.9294
13609SOL     OW42267   5.316   4.052   2.574 -0.3495  0.0955 -0.0876
13609SOL    HW142268   5.382   4.036   2.641 -0.8545  0.8879  0.6350
13609SOL    HW242269   5.335   4.141   2.542 -1.2510  0.4731  0.3780
13610SOL     OW42270   6.350   1.435   2.762  0.4734  0.2577 -0.7949
13610SOL    HW142271   6.266   1.431   2.716  0.3059 -1.1945 -0.4156
13610SOL    HW242272   6.403   1.495   2.710 -0.7601  1.1091 -1.1051
13611SOL     OW42273   2.530   7.813   0.709 -0.2060 -0.3420  0.2387
13611SOL    HW142274   2.474   7.768   0.772 -2.7246 -0.6077 -1.9744
13611SOL    HW242275   2.514   7.906   0.723  0.2542 -0.3478  0.8199
13612SOL     OW42276   1.653   6.377   1.410 -0.2511 -0.2196  0.5764
13612SOL    HW142277   1.637   6.388   1.316 -0.5815 -0.5529  0.5902
13612SOL    HW242278   1.724   6.313   1.414 -0.3619 -0.3464  0.5530
13613SOL     OW42279   4.119   0.351   8.469 -0.2522 -0.3852  0.0247
13613SOL    HW142280   4.159   0.435   8.492 -0.9462 -0.4583  1.6577
13613SOL    HW242281   4.192   0.290   8.462  0.1710  0.1381 -0.1673
13614SOL     OW42282   0.113   3.634   3.118 -0.6366 -0.4451  0.0613
13614SOL    HW142283   0.150   3.718   3.145 -0.7243 -0.0326 -1.0390
13614SOL    HW242284   0.023   3.654   3.093 -0.9489 -1.0469  0.6592
13615SOL     OW42285   3.139   5.438   7.057  0.5515 -0.4613 -0.3357
13615SOL    HW142286   3.131   5.522   7.103 -0.0454 -0.8783  0.3519
13615SOL    HW242287   3.149   5.374   7.127  1.1492 -0.9532 -0.8639
13616SOL     OW42288   5.861   3.358   3.668 -0.9583 -0.2795  0.1937
13616SOL    HW142289   5.900   3.274   3.644 -1.7732 -0.6061 -0.0082
13616SOL    HW242290   5.820   3.343   3.753 -0.3260  0.1686  0.5883
13617SOL     OW42291   7.340   1.815   9.130 -0.4965 -0.1582 -0.0472
13617SOL    HW142292   7.344   1.881   9.062  2.7933  0.4483  0.5463
13617SOL    HW242293   7.316   1.863   9.209 -0.1832 -0.0541 -0.0125
13618SOL     OW42294   4.052   0.539   6.704  0.3659  0.2057  0.4288
13618SOL    HW142295   4.117   0.559   6.636  0.2571 -1.1931 -0.1361
13618SOL    HW242296   4.058   0.611   6.766  1.8091  0.5610 -0.0948
13619SOL     OW42297   4.249   7.660   7.502  0.4929  0.1462  0.1472
13619SOL    HW142298   4.235   7.599   7.574  2.3315 -0.5577 -0.0309
13619SOL    HW242299   4.307   7.727   7.538  1.1621 -0.0356 -0.5670
13620SOL     OW42300   7.024   5.275   9.708  0.0706  0.3054  0.2805
13620SOL    HW142301   7.049   5.285   9.800  2.0771  0.0595 -0.2028
13620SOL    HW242302   6.956   5.207   9.709 -0.0468  0.4245  1.5914
13621SOL     OW42303   4.075   0.707   6.081  0.4484  0.0619 -0.2359
13621SOL    HW142304   4.067   0.783   6.022 -0.2354 -0.0732 -0.3236
13621SOL    HW242305   4.113   0.743   6.161 -1.3121  0.8249  0.3147
13622SOL     OW42306   5.540   5.071   7.875 -0.0131  0.1945 -0.4235
13622SOL    HW142307   5.475   5.056   7.807  0.1294  0.8377 -0.7050
13622SOL    HW242308   5.598   5.138   7.839  0.0625  0.5463  0.3355
13623SOL     OW42309   6.658   2.918   7.269 -0.2264 -0.2552  0.5693
13623SOL    HW142310   6.699   2.998   7.236 -1.2025  0.2566  0.5723
13623SOL    HW242311   6.699   2.904   7.355 -0.3078  0.4499  0.7325
13624SOL     OW42312   1.563   3.220   6.164 -0.0441  0.4935 -0.0369
13624SOL    HW142313   1.541   3.128   6.174  3.3326 -0.3004  1.8294
13624SOL    HW242314   1.573   3.233   6.070  0.2035 -1.2946 -0.2857
13625SOL     OW42315   2.504   7.133   3.098 -0.4559  0.6898  0.7791
13625SOL    HW142316   2.570   7.106   3.163 -0.9243 -1.3144  0.4988
13625SOL    HW242317   2.528   7.223   3.075  1.2524  0.5487  1.8241
13626SOL     OW42318   1.536   5.072   0.352 -0.2020 -0.0173 -0.0575
13626SOL    HW142319   1.609   5.116   0.308  0.6480 -0.0513  1.2918
13626SOL    HW242320   1.508   5.132   0.420 -1.0973 -0.2469 -0.1996
13627SOL     OW42321   4.620   2.303   3.576 -0.2232  0.3254  0.0687
13627SOL    HW142322   4.676   2.312   3.652 -0.5267  0.0943  0.3239
13627SOL    HW242323   4.637   2.215   3.544 -0.0286  0.4542 -0.1862
13628SOL     OW42324   0.848   3.625   2.483  0.3039  0.1449  0.9779
13628SOL    HW142325   0.917   3.576   2.438 -1.1998 -0.0857 -1.2364
13628SOL    HW242326   0.773   3.565   2.486 -0.7154  1.3458  0.6719
13629SOL     OW42327   4.395   6.435   7.457  0.6906 -0.0884  0.1277
13629SOL    HW142328   4.380   6.346   7.489 -2.4749 -0.7107 -2.5331
13629SOL    HW242329   4.311   6.479   7.469  1.7868  2.1338  0.0715
13630SOL     OW42330   7.360   2.659   4.318  0.0732 -0.3787 -0.1382
13630SOL    HW142331   7.300   2.724   4.354  0.2223  1.1173 -2.3506
13630SOL    HW242332   7.439   2.666   4.371 -0.5916 -0.1591  0.8544
13631SOL     OW42333   7.269   4.534   9.314  0.4928 -0.0969 -0.2776
13631SOL    HW142334   7.273   4.452   9.364 -0.9868  0.0082  0.0655
13631SOL    HW242335   7.183   4.570   9.334  2.0950  3.0222  1.8022
13632SOL     OW42336   7.785   4.051   2.938 -0.2032 -0.3294 -0.4383
13632SOL    HW142337   7.838   3.972   2.922 -0.7135 -0.4214 -1.8341
13632SOL    HW242338   7.802   4.106   2.862 -2.3403 -0.5081 -1.1110
13633SOL     OW42339   7.708   3.365   3.213 -0.0976  0.3831  0.2423
13633SOL    HW142340   7.764   3.438   3.240 -0.9350  1.3502 -0.5707
13633SOL    HW242341   7.703   3.373   3.118 -0.0101 -0.8969  0.1108
13634SOL     OW42342   1.317   7.205   2.967  0.4421 -0.3602 -0.2671
13634SOL    HW142343   1.225   7.190   2.988  0.3857  0.6803  0.3048
13634SOL    HW242344   1.364   7.177   3.045  0.5153  0.1681 -0.1172
13635SOL     OW42345   6.282   7.054   9.987 -0.1341 -0.4031 -0.1521
13635SOL    HW142346   6.203   7.003  10.006 -1.0562  0.3559 -1.7083
13635SOL    HW242347   6.352   7.008  10.034 -0.9972 -2.8106 -1.0418
13636SOL     OW42348   0.545   4.096   4.966  0.4972 -0.0972  0.2287
13636SOL    HW142349   0.610   4.155   5.003  0.1964  0.7265 -0.5159
13636SOL    HW242350   0.561   4.098   4.872 -1.7908  1.6818 -0.2284
13637SOL     OW42351   2.071   7.271   6.765  0.5199  0.3466 -0.4782
13637SOL    HW142352   2.005   7.281   6.834  1.4484  1.9171  0.2220
13637SOL    HW242353   2.031   7.312   6.688  1.3066  2.9232  0.4060
13638SOL     OW42354   0.751   0.347   7.036  0.9429  0.4346  0.1961
13638SOL    HW142355   0.727   0.437   7.018  0.1579  0.2986  0.5180
13638SOL    HW242356   0.769   0.345   7.130 -1.4688 -0.2439  0.7023
13639SOL     OW42357   1.649   1.298   1.505  0.2044  0.2636 -0.5138
13639SOL    HW142358   1.635   1.392   1.519 -1.2348 -0.1436  1.2408
13639SOL    HW242359   1.705   1.271   1.578 -0.8761 -0.5401  0.0437
13640SOL     OW42360   6.566   4.145   3.985 -0.1512 -0.0707  0.8783
13640SOL    HW142361   6.510   4.221   3.995  0.1853  0.3034 -0.0025
13640SOL    HW242362   6.655   4.179   3.995  0.0770 -0.0904 -0.7830
13641SOL     OW42363   5.445   3.586   5.318 -0.0306 -0.7681 -0.2734
13641SOL    HW142364   5.524   3.577   5.371 -1.2506 -1.0649  1.6014
13641SOL    HW242365   5.473   3.568   5.229  2.0658 -0.5470  0.3053
13642SOL     OW42366   0.618   5.595   8.673 -0.0117  0.7052  0.1351
13642SOL    HW142367   0.649   5.552   8.753  1.1004  0.2859 -0.4969
13642SOL    HW242368   0.651   5.541   8.602  0.3013  1.8789 -0.6484
13643SOL     OW42369   3.755   1.072   6.496 -0.6631  0.0151  0.2776
13643SOL    HW142370   3.793   1.025   6.570  0.8321 -0.2826 -0.6393
13643SOL    HW242371   3.678   1.115   6.532 -1.4420 -2.1784  1.4210
13644SOL     OW42372   6.720   6.613   0.776 -0.3925  0.2446 -0.6460
13644SOL    HW142373   6.732   6.531   0.825 -1.0649 -0.2679 -1.3037
13644SOL    HW242374   6.799   6.619   0.721  0.5737  1.0488  0.7718
13645SOL     OW42375   7.625   1.783   2.283  0.4416  0.6186  0.3806
13645SOL    HW142376   7.598   1.722   2.352  0.7053  0.1767  0.0957
13645SOL    HW242377   7.579   1.864   2.304 -0.3108  0.1791  0.4835
13646SOL     OW42378   7.829   1.811   3.376 -0.5665  0.3070 -0.3197
13646SOL    HW142379   7.839   1.792   3.469 -0.6021  0.1365 -0.3507
13646SOL    HW242380   7.918   1.824   3.344 -0.2166 -2.6979 -0.9197
13647SOL     OW42381   3.361   5.262   0.209 -0.3601  0.1685 -0.1865
13647SOL    HW142382   3.315   5.294   0.132 -0.4479  0.0820 -0.1712
13647SOL    HW242383   3.428   5.328   0.228  0.4210 -0.3646 -1.0213
13648SOL     OW42384   7.130   7.185   1.716 -0.5183  0.1360 -0.3395
13648SOL    HW142385   7.132   7.145   1.803 -0.8470  1.3889  0.2661
13648SOL    HW242386   7.039   7.210   1.702 -0.3164  0.7175 -0.6733
13649SOL     OW42387   2.274   1.354   6.365  0.4683  0.2151 -0.6063
13649SOL    HW142388   2.289   1.345   6.271 -0.2372 -0.4523 -0.6618
13649SOL    HW242389   2.361   1.349   6.405  0.6555 -0.8024 -1.1247
13650SOL     OW42390   3.636   0.273  11.411 -0.2483 -0.3694  0.5204
13650SOL    HW142391   3.700   0.202  11.419  1.4739  0.9873 -0.3785
13650SOL    HW242392   3.588   0.253  11.331  1.3457  0.2303 -0.6549
13651SOL     OW42393   6.952   0.307   2.604 -0.3315 -0.6947 -0.3918
13651SOL    HW142394   6.899   0.353   2.669 -0.3497 -2.4827  0.9233
13651SOL    HW242395   6.963   0.370   2.533 -1.6450  0.7676  0.6450
13652SOL     OW42396   3.872   6.935  11.531 -0.0476 -0.1286 -0.5342
13652SOL    HW142397   3.941   6.921  11.466  2.2577  2.6303  1.0685
13652SOL    HW242398   3.864   6.852  11.577  1.5282 -0.8138 -1.4315
13653SOL     OW42399   0.918   1.611   3.460  0.2606 -0.5334  0.4056
13653SOL    HW142400   0.892   1.602   3.552  1.4750 -2.2135  0.6372
13653SOL    HW242401   0.900   1.524   3.422  0.5033 -0.0993 -0.7479
13654SOL     OW42402   5.151   2.944  11.231 -0.6384 -0.9570  0.5649
13654SOL    HW142403   5.231   2.997  11.241 -1.5569  0.3299  1.5118
13654SOL    HW242404   5.099   2.992  11.166 -1.5387 -0.5944  1.5266
13655SOL     OW42405   4.862   0.812   2.741  0.1172  0.0455  0.0441
13655SOL    HW142406   4.866   0.856   2.826  0.2808 -0.6577  0.4030
13655SOL    HW242407   4.812   0.732   2.757  0.2474 -0.1495 -0.4966
13656SOL     OW42408   0.406   4.476   8.569  0.5685  0.1385 -0.0867
13656SOL    HW142409   0.481   4.531   8.592  0.5712 -0.1253  0.5304
13656SOL    HW242410   0.390   4.496   8.476  0.6213  1.1112  0.1046
13657SOL     OW42411   1.155   0.843   9.163  0.3585 -0.2945 -0.7756
13657SOL    HW142412   1.094   0.880   9.227  2.3020 -0.3524  1.2283
13657SOL    HW242413   1.171   0.914   9.101 -0.4863  0.2472 -0.3954
13658SOL     OW42414   3.337   1.743   1.543  0.4444 -0.4036 -0.1561
13658SOL    HW142415   3.414   1.781   1.503 -0.3986 -0.3575 -1.8064
13658SOL    HW242416   3.366   1.657   1.575  1.5342  0.2428  0.6628
13659SOL     OW42417   6.839   6.826  12.337  0.4036  0.4796 -0.1050
13659SOL    HW142418   6.841   6.854  12.429  0.7066  0.2743 -0.0475
13659SOL    HW242419   6.931   6.819  12.312  0.3397 -0.6702 -0.0566
13660SOL     OW42420   4.191   5.652   0.999 -0.6302  0.6399  0.2340
13660SOL    HW142421   4.097   5.655   0.981 -0.0816  1.6028 -3.0877
13660SOL    HW242422   4.211   5.739   1.036 -0.6126  1.7368 -2.1757
13661SOL     OW42423   0.729   5.026   1.770  0.7127  0.1870 -0.2820
13661SOL    HW142424   0.677   4.992   1.697  0.6417 -0.4061  0.0400
13661SOL    HW242425   0.796   5.080   1.729  0.9285 -0.4747 -0.8101
13662SOL     OW42426   4.753   0.116   6.420  0.3609 -1.0707  0.0381
13662SOL    HW142427   4.797   0.060   6.483  1.5507 -0.5942 -0.3492
13662SOL    HW242428   4.814   0.123   6.347  0.5600  1.3010  0.3619
13663SOL     OW42429   6.808   0.205   8.381 -0.0216  0.4975  0.4963
13663SOL    HW142430   6.778   0.234   8.295  1.5881  1.3046  0.1866
13663SOL    HW242431   6.768   0.266   8.442 -1.2141 -0.1091  0.3532
13664SOL     OW42432   1.228   4.799   0.358 -0.2033  0.0680 -0.3149
13664SOL    HW142433   1.172   4.732   0.396  0.6919 -0.3161  0.3581
13664SOL    HW242434   1.167   4.861   0.317 -1.1118 -0.3090  0.4374
13665SOL     OW42435   4.651   1.147   1.858 -0.0032  0.5115  0.1358
13665SOL    HW142436   4.639   1.165   1.765  1.0562  0.9523  0.0750
13665SOL    HW242437   4.562   1.131   1.891 -0.3272 -0.2807 -1.0651
13666SOL     OW42438   5.558   1.910   1.653  0.3036 -0.1959  0.2250
13666SOL    HW142439   5.626   1.878   1.712  0.1481 -0.4676  0.2578
13666SOL    HW242440   5.521   1.831   1.613 -1.6963 -0.3008  2.0735
13667SOL     OW42441   0.757   2.948   9.199 -0.1733 -0.0270 -0.0063
13667SOL    HW142442   0.710   2.925   9.279 -1.9183  0.4239 -0.8465
13667SOL    HW242443   0.800   3.031   9.219 -1.1433  0.4154  0.2715
13668SOL     OW42444   7.011   0.527   6.657  0.6097 -0.2898 -0.8528
13668SOL    HW142445   6.984   0.607   6.611 -0.0092 -0.0702 -0.1394
13668SOL    HW242446   7.090   0.499   6.612  0.1099 -0.0006 -1.9494
13669SOL     OW42447   2.229   2.728  11.111 -0.1872  0.6355 -0.5105
13669SOL    HW142448   2.284   2.797  11.148 -0.8900  1.1159 -0.3427
13669SOL    HW242449   2.185   2.689  11.186 -0.1930  0.3479 -0.6607
13670SOL     OW42450   3.430   2.202   3.732 -0.0730 -0.0730 -0.0741
13670SOL    HW142451   3.415   2.276   3.673  1.0079  0.3943  0.2071
13670SOL    HW242452   3.500   2.232   3.789 -0.6683 -0.7618  1.0440
13671SOL     OW42453   4.984   2.046   9.912  0.0683 -0.6290  0.0831
13671SOL    HW142454   4.971   2.136   9.882 -0.3431 -0.4435  0.7697
13671SOL    HW242455   4.944   1.992   9.844  0.8961 -0.3358 -0.6562
13672SOL     OW42456   5.219   3.389   7.627 -0.5462  0.3000 -0.2142
13672SOL    HW142457   5.124   3.377   7.637 -1.0203  3.5637  0.4717
13672SOL    HW242458   5.256   3.355   7.709 -1.2977  0.3706  0.1665
13673SOL     OW42459   5.442   7.464  12.267 -0.4459 -0.0378 -0.3237
13673SOL    HW142460   5.377   7.414  12.317 -0.8422  0.4427 -0.3512
13673SOL    HW242461   5.491   7.397  12.219 -1.2052 -0.3814 -0.6427
13674SOL     OW42462   3.001   3.340   3.408  0.4192 -0.2902 -0.1611
13674SOL    HW142463   3.019   3.432   3.427  1.8914 -0.4181 -0.8618
13674SOL    HW242464   2.920   3.342   3.356  0.7878  0.6558 -0.7152
13675SOL     OW42465   3.812   7.557   4.945 -0.5196 -0.0440 -0.3606
13675SOL    HW142466   3.876   7.516   4.887 -0.8979  1.4030 -1.8563
13675SOL    HW242467   3.861   7.626   4.990 -0.4237 -0.6427  0.4779
13676SOL     OW42468   1.243   1.260  12.391 -0.3456 -0.0785 -0.3515
13676SOL    HW142469   1.272   1.169  12.384 -0.0857 -0.0778  0.6296
13676SOL    HW242470   1.239   1.277  12.485 -0.4890  0.8945 -0.5254
13677SOL     OW42471   2.213   6.291   6.943 -0.2342  0.0076 -0.1769
13677SOL    HW142472   2.173   6.235   7.009  0.6787 -0.7222 -0.2317
13677SOL    HW242473   2.152   6.365   6.934 -1.0395 -0.5649  0.4799
13678SOL     OW42474   1.367   6.739   6.755 -0.2975 -0.0696  0.1123
13678SOL    HW142475   1.365   6.744   6.851  0.8297 -2.0193  0.2961
13678SOL    HW242476   1.454   6.772   6.731 -0.7005  0.7296 -0.2903
13679SOL     OW42477   5.015   7.230   6.498 -0.1361 -0.5943  0.0707
13679SOL    HW142478   5.031   7.320   6.527  1.4272 -0.4402 -1.1635
13679SOL    HW242479   4.968   7.240   6.415 -2.8310 -1.0138  1.4194
13680SOL     OW42480   4.434   1.307  11.190 -0.0272  0.5173  0.3573
13680SOL    HW142481   4.386   1.338  11.112 -0.9321 -0.1481  0.6372
13680SOL    HW242482   4.505   1.371  11.201  1.7485 -0.7423 -2.5376
13681SOL     OW42483   0.548   7.354   9.527  0.8375  0.0135  0.2225
13681SOL    HW142484   0.535   7.336   9.620  4.0889 -1.6088  0.4750
13681SOL    HW242485   0.528   7.271   9.483  1.7645  0.0229 -0.2329
13682SOL     OW42486   6.906   7.805   2.793  0.1363 -0.1707  0.1278
13682SOL    HW142487   6.940   7.878   2.741  0.6145  0.3277  1.1000
13682SOL    HW242488   6.882   7.739   2.728 -0.3479  0.8545 -0.7820
13683SOL     OW42489   2.554   0.278   3.468  0.4206 -0.4777  0.1429
13683SOL    HW142490   2.591   0.294   3.381 -0.7074 -0.7547 -0.4099
13683SOL    HW242491   2.604   0.335   3.526  0.8291  0.1252 -0.7690
13684SOL     OW42492   3.140   2.617   8.965  0.7879  0.2505  0.3215
13684SOL    HW142493   3.071   2.678   8.989  1.0563 -0.2480  2.6565
13684SOL    HW242494   3.147   2.558   9.040  1.4258 -1.8634 -1.2746
13685SOL     OW42495   7.913   6.232   7.152 -0.4521  0.4209 -0.0676
13685SOL    HW142496   7.955   6.278   7.080 -1.2343 -1.3333 -1.7213
13685SOL    HW242497   7.825   6.269   7.156  0.2213  2.0199  1.4704
13686SOL     OW42498   3.348   5.863   8.449  0.0054  0.2702  0.1589
13686SOL    HW142499   3.408   5.928   8.485  0.1576 -1.0615  2.4974
13686SOL    HW242500   3.403   5.804   8.398 -0.2809  2.4594 -2.9716
13687SOL     OW42501   1.156   1.704  12.324  0.0931  0.2172 -0.2228
13687SOL    HW142502   1.172   1.798  12.313  1.5962  0.0125 -0.0145
13687SOL    HW242503   1.062   1.694  12.310  0.1697  1.4943 -2.0422
13688SOL     OW42504   4.342   0.136   9.666 -0.0995  0.0288 -0.0746
13688SOL    HW142505   4.425   0.126   9.619  0.0098  1.2939 -0.1690
13688SOL    HW242506   4.337   0.229   9.687 -1.4604 -0.0474  0.0076
13689SOL     OW42507   1.788   2.977   3.530 -0.4074 -0.3381 -0.1232
13689SOL    HW142508   1.758   3.059   3.570  0.2682  1.0741 -2.3311
13689SOL    HW242509   1.875   2.963   3.566 -0.6826 -0.3099  0.5659
13690SOL     OW42510   7.941   1.823   5.018 -0.1342  0.7764  0.2264
13690SOL    HW142511   7.976   1.833   5.106  0.7805 -0.2558  0.0050
13690SOL    HW242512   7.867   1.763   5.029 -0.7936  1.6188  0.4543
13691SOL     OW42513   0.530   7.069   9.586  0.0778 -0.2563 -0.3123
13691SOL    HW142514   0.469   7.037   9.653 -0.4667  0.8364 -0.2658
13691SOL    HW242515   0.541   6.995   9.526 -1.2988 -0.4819 -0.3143
13692SOL     OW42516   3.234   3.359   1.279 -0.2205 -0.4986 -0.0226
13692SOL    HW142517   3.199   3.270   1.278 -0.0383 -0.5705 -0.2210
13692SOL    HW242518   3.212   3.394   1.192  0.2412 -0.5626 -0.1687
13693SOL     OW42519   3.646   2.313   3.876  0.1229  0.2332  0.9480
13693SOL    HW142520   3.724   2.295   3.823 -0.8159 -0.8231 -0.1374
13693SOL    HW242521   3.647   2.245   3.943 -1.2601 -1.5506 -0.7152
13694SOL     OW42522   1.955   5.229   4.278  0.1846 -0.5358  0.1674
13694SOL    HW142523   1.942   5.197   4.189 -0.4007 -3.6011  1.2342
13694SOL    HW242524   2.041   5.197   4.303 -0.1252 -0.6666  1.0840
13695SOL     OW42525   5.625   6.913   6.491  0.6702  0.6775 -0.3262
13695SOL    HW142526   5.586   6.826   6.486 -0.3960  1.0836  0.6211
13695SOL    HW242527   5.675   6.921   6.410 -2.9556  0.9566 -2.7792
13696SOL     OW42528   6.273   4.197  11.186 -0.3354  0.0325  0.1422
13696SOL    HW142529   6.314   4.270  11.140 -1.5210  0.2283 -0.6293
13696SOL    HW242530   6.186   4.190  11.149 -0.5446 -1.2487  0.8012
13697SOL     OW42531   3.053   6.285   4.513  0.0837 -0.5098  0.1629
13697SOL    HW142532   2.986   6.347   4.540  0.4310  0.1735 -0.4991
13697SOL    HW242533   3.057   6.221   4.584 -0.1688  0.3177  0.9426
13698SOL     OW42534   1.707   1.307   8.795  0.4129 -0.5776 -0.4022
13698SOL    HW142535   1.672   1.369   8.731  1.6905 -0.8434 -1.3855
13698SOL    HW242536   1.690   1.221   8.757 -0.7103 -0.8370  0.6246
13699SOL     OW42537   4.655   0.921   8.386 -0.0124  0.3502  0.9196
13699SOL    HW142538   4.561   0.939   8.381  0.0292  0.7768  1.6467
13699SOL    HW242539   4.660   0.835   8.427 -0.2475 -1.9526 -3.3186
13700SOL     OW42540   2.836   6.154   9.844  0.6220 -0.3554 -0.5204
13700SOL    HW142541   2.821   6.092   9.914 -1.9244  0.6032 -0.1315
13700SOL    HW242542   2.816   6.239   9.882  2.4023  0.5745 -1.5194
13701SOL     OW42543   5.092   3.601   6.461 -0.1373 -0.2462  0.0963
13701SOL    HW142544   5.167   3.623   6.515  0.5711 -1.7130 -0.2395
13701SOL    HW242545   5.035   3.549   6.517 -1.3842  1.5690  0.6219
13702SOL     OW42546   7.591   3.652   4.479  0.3296  0.3170  0.1716
13702SOL    HW142547   7.568   3.608   4.397  0.9265  0.0457  0.1478
13702SOL    HW242548   7.680   3.623   4.498  1.2462  2.5265 -0.5068
13703SOL     OW42549   1.461   6.210   0.292  0.3260  0.1845 -0.4013
13703SOL    HW142550   1.412   6.286   0.322  0.1992  1.0970 -2.6821
13703SOL    HW242551   1.395   6.142   0.278  0.4456 -0.4149  1.6899
13704SOL     OW42552   5.150   7.846   4.474 -0.4549 -0.1656  0.4048
13704SOL    HW142553   5.140   7.939   4.453  0.2651 -0.3984 -1.1655
13704SOL    HW242554   5.226   7.842   4.532 -0.7950  0.2760  0.8786
13705SOL     OW42555   4.579   7.433   7.997  0.4411  0.5824  0.2975
13705SOL    HW142556   4.668   7.469   7.997  0.4157  0.6461  0.0156
13705SOL    HW242557   4.526   7.500   7.955  0.5841 -0.2277 -1.2494
13706SOL     OW42558   5.707   7.228   3.542  0.4215 -0.1487  0.4833
13706SOL    HW142559   5.783   7.180   3.509  0.8500  1.5274 -1.1844
13706SOL    HW242560   5.636   7.207   3.481  0.1931  0.0976  0.6557
13707SOL     OW42561   6.186   3.733   7.807  0.1205  0.5208  0.0091
13707SOL    HW142562   6.184   3.640   7.830 -2.4192  0.4860 -0.0588
13707SOL    HW242563   6.192   3.735   7.712  1.1058  0.4744  0.0595
13708SOL     OW42564   3.689   3.599   5.693 -1.0083  0.0518 -0.3462
13708SOL    HW142565   3.684   3.519   5.745  0.7413 -2.1316 -3.2758
13708SOL    HW242566   3.602   3.608   5.655 -1.1556 -0.5789 -0.1749
13709SOL     OW42567   2.986   1.097   9.645 -0.0108  0.1760 -0.1126
13709SOL    HW142568   2.938   1.107   9.728  2.0417  2.8941  0.8886
13709SOL    HW242569   3.078   1.102   9.670  0.6953  0.1897 -2.4790
13710SOL     OW42570   3.432   6.560  10.556  0.0987 -0.2200  0.1434
13710SOL    HW142571   3.455   6.598  10.471  0.5069 -1.0636 -0.1258
13710SOL    HW242572   3.502   6.498  10.575  0.5936  0.7225  1.6036
13711SOL     OW42573   6.114   3.824  10.996 -0.3016 -0.2053 -0.2014
13711SOL    HW142574   6.106   3.804  10.902 -0.4301 -1.3036  0.0323
13711SOL    HW242575   6.204   3.801  11.018 -0.1341  0.4818 -0.1423
13712SOL     OW42576   2.346   2.563   1.072 -0.1670 -0.1431  0.3189
13712SOL    HW142577   2.309   2.521   1.150  0.2603 -1.9583 -0.4024
13712SOL    HW242578   2.285   2.543   1.002  1.4611 -2.1506 -0.6358
13713SOL     OW42579   2.532   0.521   4.500 -0.3570  0.0588  0.1516
13713SOL    HW142580   2.589   0.595   4.522 -0.0845 -0.2519  0.5021
13713SOL    HW242581   2.481   0.506   4.579 -0.4397 -0.1003  0.0672
13714SOL     OW42582   5.419   6.529   4.875  0.3430 -0.5367  0.5186
13714SOL    HW142583   5.413   6.547   4.969 -1.6897  0.7046  0.2060
13714SOL    HW242584   5.496   6.579   4.847  0.3074  0.0081  1.3334
13715SOL     OW42585   5.866   5.454  11.984  0.2231 -0.3571 -0.1316
13715SOL    HW142586   5.925   5.440  11.910  1.2070 -1.4259  0.8253
13715SOL    HW242587   5.798   5.387  11.973 -1.6119  1.6340 -1.9142
13716SOL     OW42588   7.637   4.393   4.359  0.0813  0.3602  0.3335
13716SOL    HW142589   7.698   4.446   4.309 -2.2064  1.4312 -1.4875
13716SOL    HW242590   7.659   4.302   4.336  2.5978  0.5225  1.7798
13717SOL     OW42591   1.234   5.943   6.810  0.1690 -0.4431 -0.4073
13717SOL    HW142592   1.263   6.029   6.779 -0.9221 -0.5464 -1.7997
13717SOL    HW242593   1.198   5.960   6.897  0.7744  0.3449 -0.3021
13718SOL     OW42594   6.900   0.078  10.736 -0.4737 -0.3470  0.2351
13718SOL    HW142595   6.968   0.039  10.681  0.8491  0.3719  1.2949
13718SOL    HW242596   6.938   0.079  10.824 -1.0820  1.7971  0.5313
13719SOL     OW42597   6.535   2.346   4.176  0.4064  0.3669  0.3992
13719SOL    HW142598   6.502   2.393   4.252  0.4184  2.1950 -0.6730
13719SOL    HW242599   6.628   2.367   4.173  0.9336 -1.6723  1.2308
13720SOL     OW42600   3.933   5.073   3.174 -0.4285 -0.2067  0.1797
13720SOL    HW142601   3.876   5.019   3.229 -2.2658  2.3298  0.9334
13720SOL    HW242602   3.882   5.152   3.156  2.3819  1.6601 -0.2170
13721SOL     OW42603   6.468   2.992   6.861  0.0989  0.4189 -0.4684
13721SOL    HW142604   6.551   2.957   6.895  0.3826  0.6857 -0.8718
13721SOL    HW242605   6.450   2.938   6.784 -1.0602 -0.8461  0.6498
13722SOL     OW42606   2.201   1.419   9.667  0.6393 -0.2859 -0.3469
13722SOL    HW142607   2.194   1.514   9.676  2.1611 -0.3020  1.5538
13722SOL    HW242608   2.225   1.388   9.754  1.4149 -2.2947 -1.2150
13723SOL     OW42609   7.167   0.330   4.761 -0.1844  0.2484 -0.1136
13723SOL    HW142610   7.160   0.425   4.774 -0.8161  0.0508  1.2570
13723SOL    HW242611   7.260   0.314   4.749  0.0253  0.9699  0.4570
13724SOL     OW42612   0.428   0.523   9.739  0.4580  0.4584  0.0231
13724SOL    HW142613   0.363   0.461   9.704  1.5232 -0.0197 -1.1796
13724SOL    HW242614   0.383   0.565   9.813 -1.1007 -0.0897 -0.5629
13725SOL     OW42615   1.901   0.492   7.492 -0.2738  0.2294 -0.9276
13725SOL    HW142616   1.820   0.516   7.538 -0.0265  0.0443 -0.3779
13725SOL    HW242617   1.891   0.399   7.473  0.7132 -0.3720  1.1362
13726SOL     OW42618   4.901   6.893   0.650  0.0465  0.4023 -0.3055
13726SOL    HW142619   4.827   6.945   0.681  0.5407 -0.0601  1.7760
13726SOL    HW242620   4.946   6.864   0.729  2.8831  1.2058 -1.4773
13727SOL     OW42621   3.063   7.189   4.993  0.1228 -0.6991  0.0476
13727SOL    HW142622   3.046   7.213   4.902  2.7689  3.1573  0.3137
13727SOL    HW242623   2.986   7.219   5.041 -0.1680 -0.3270 -0.6459
13728SOL     OW42624   2.988   1.138   4.246  0.9771 -0.0908  0.6228
13728SOL    HW142625   2.960   1.047   4.237 -1.3011  0.7463 -2.2597
13728SOL    HW242626   3.057   1.149   4.180  2.3953 -0.0696  2.0608
13729SOL     OW42627   3.482   0.326   3.111  0.0280  0.3836 -0.2679
13729SOL    HW142628   3.566   0.282   3.098 -0.0761 -0.0007  0.3537
13729SOL    HW242629   3.443   0.284   3.187 -1.0230  0.1193 -0.9219
13730SOL     OW42630   2.329   5.807   1.061  0.2273  0.4195  0.0619
13730SOL    HW142631   2.424   5.805   1.050  0.2078  1.9792 -0.6419
13730SOL    HW242632   2.295   5.745   0.997  0.8097 -1.4512  1.4692
13731SOL     OW42633   3.937   0.462   5.121  0.0657  0.2061 -0.1948
13731SOL    HW142634   3.947   0.467   5.026 -2.3294 -2.9679 -0.7655
13731SOL    HW242635   3.980   0.380   5.145 -1.0195  0.0045  1.1609
13732SOL     OW42636   0.005   1.152   1.713 -0.0549  0.5514  0.1491
13732SOL    HW142637   0.068   1.215   1.746  1.6346  0.0308 -1.9026
13732SOL    HW242638   0.050   1.068   1.717 -0.4427  0.2108 -1.6454
13733SOL     OW42639   7.891   6.691   9.096  0.0705 -0.4700  0.5518
13733SOL    HW142640   7.804   6.731   9.096  0.8026  1.2303  0.4480
13733SOL    HW242641   7.948   6.759   9.132  1.4969 -1.2087 -0.2255
13734SOL     OW42642   1.309   3.330   3.554  0.3731 -0.1718  0.3611
13734SOL    HW142643   1.315   3.380   3.473 -1.4437 -1.0072 -0.3530
13734SOL    HW242644   1.289   3.240   3.526  0.5971 -0.6648  1.6944
13735SOL     OW42645   5.332   7.303   0.725  0.6314 -0.0538  0.0477
13735SOL    HW142646   5.247   7.284   0.687  0.9320 -0.9824 -0.1960
13735SOL    HW242647   5.354   7.391   0.694 -0.1240  0.0960 -0.0794
13736SOL     OW42648   0.319   2.547   8.309  0.2231 -0.3571  0.5024
13736SOL    HW142649   0.310   2.465   8.261 -0.8215 -0.3235  0.6054
13736SOL    HW242650   0.229   2.577   8.322  0.5604  0.4785  1.0299
13737SOL     OW42651   6.549   4.584   5.691  0.5377  0.2163  0.4012
13737SOL    HW142652   6.490   4.514   5.663 -1.1852  1.3558  1.0285
13737SOL    HW242653   6.511   4.616   5.773  1.7486  1.3312  0.5480
13738SOL     OW42654   5.245   5.114  10.697  0.1940 -0.2069 -0.4753
13738SOL    HW142655   5.257   5.183  10.632  0.8327 -2.4624 -2.9044
13738SOL    HW242656   5.299   5.141  10.771  2.8918  0.4953 -2.5435
13739SOL     OW42657   4.199   2.992   4.784 -0.8541 -0.2654  0.1631
13739SOL    HW142658   4.205   3.051   4.708  1.4670 -0.0136  0.4790
13739SOL    HW242659   4.250   2.915   4.759 -1.0167 -0.6735  1.0576
13740SOL     OW42660   2.211   5.546  10.897 -0.0693 -0.1505 -0.2406
13740SOL    HW142661   2.158   5.478  10.856 -0.0605 -0.0959 -0.3445
13740SOL    HW242662   2.146   5.607  10.933 -0.0770 -0.2568 -0.0752
13741SOL     OW42663   5.173   4.053   1.182 -0.4359 -0.5760  0.6788
13741SOL    HW142664   5.182   3.961   1.205 -0.6051 -0.6966  0.2667
13741SOL    HW242665   5.198   4.058   1.090  0.6713 -0.0201  0.9956
13742SOL     OW42666   0.242   3.997   4.562 -0.2789 -0.0484 -0.1361
13742SOL    HW142667   0.229   3.902   4.556  0.8896 -0.2647  0.3958
13742SOL    HW242668   0.208   4.031   4.479 -1.2505 -0.8538 -0.0939
13743SOL     OW42669   0.495   1.170   2.092  0.0523  0.3563 -0.1487
13743SOL    HW142670   0.497   1.175   2.187  1.0426  1.1588 -0.1957
13743SOL    HW242671   0.559   1.235   2.063 -1.1649  1.0687 -1.3872
13744SOL     OW42672   2.412   4.082   3.316  0.4238 -0.2763  0.3074
13744SOL    HW142673   2.388   4.081   3.409 -0.9247  1.3591  0.0228
13744SOL    HW242674   2.456   4.165   3.303 -0.0652 -0.1458 -0.6597
13745SOL     OW42675   5.249   4.476  10.294 -0.1021 -0.1467  0.2446
13745SOL    HW142676   5.216   4.440  10.211  0.9037 -0.8653  0.1420
13745SOL    HW242677   5.198   4.430  10.361 -0.9638  0.4818  0.0400
13746SOL     OW42678   2.071   1.005   8.569 -0.4279 -0.5423  0.0377
13746SOL    HW142679   2.048   0.917   8.597 -0.3410 -1.2284 -1.8771
13746SOL    HW242680   1.995   1.035   8.519  0.7923 -0.9196 -2.2008
13747SOL     OW42681   2.719   6.353   8.434 -0.3527 -0.1251  0.1572
13747SOL    HW142682   2.792   6.367   8.375  0.1834 -0.7866  0.6486
13747SOL    HW242683   2.685   6.441   8.451 -0.7654  0.0449 -1.4191
13748SOL     OW42684   0.831   3.796   6.066  0.7112  0.4668 -0.5663
13748SOL    HW142685   0.752   3.771   6.018 -0.5405 -0.5700  1.8865
13748SOL    HW242686   0.893   3.822   5.997 -2.2168  2.9434 -2.5759
13749SOL     OW42687   1.859   5.788   1.123  0.2623 -0.2912 -0.1003
13749SOL    HW142688   1.895   5.771   1.037  1.7040 -0.3512  0.4897
13749SOL    HW242689   1.824   5.704   1.152  0.0076 -0.3273 -0.5037
13750SOL     OW42690   1.130   2.729   7.208 -0.5275  0.2821  0.2457
13750SOL    HW142691   1.189   2.662   7.174 -1.8721  0.3633 -2.4764
13750SOL    HW242692   1.067   2.680   7.261 -0.6804 -0.4338 -0.5749
13751SOL     OW42693   0.743   5.462  12.123 -0.7248  0.2365 -0.0427
13751SOL    HW142694   0.667   5.414  12.090 -0.4221  0.7903 -1.6147
13751SOL    HW242695   0.729   5.467  12.218 -2.3182 -0.2269 -0.2313
13752SOL     OW42696   6.693   4.054   0.610 -0.2120 -0.2842 -0.2611
13752SOL    HW142697   6.726   3.968   0.583 -0.1590 -0.0639 -0.9210
13752SOL    HW242698   6.599   4.042   0.620 -0.0350 -0.7671  1.0495
13753SOL     OW42699   0.742   4.994   2.672  0.7419 -0.1009  0.5021
13753SOL    HW142700   0.791   4.927   2.720 -0.2022 -1.7169 -0.6904
13753SOL    HW242701   0.674   5.022   2.733 -0.7908 -2.5338  0.0488
13754SOL     OW42702   6.791   2.510  11.863 -0.2450  0.0818 -0.2677
13754SOL    HW142703   6.868   2.557  11.896 -0.4973  0.1573  0.2246
13754SOL    HW242704   6.827   2.432  11.822  0.0603 -0.1611  0.4501
13755SOL     OW42705   4.576   6.093  10.422 -0.3603  0.1369  0.7358
13755SOL    HW142706   4.585   6.051  10.336 -0.8311  0.2061  0.6527
13755SOL    HW242707   4.583   6.021  10.485 -0.4914  0.0221  0.6201
13756SOL     OW42708   7.770   2.295   1.486 -0.3076 -0.6898  0.0712
13756SOL    HW142709   7.840   2.315   1.548  0.0830  0.7053 -0.7579
13756SOL    HW242710   7.815   2.261   1.409 -0.0584  3.1145 -1.7070
13757SOL     OW42711   3.578   7.758   6.825  0.5926 -0.3728  0.2072
13757SOL    HW142712   3.607   7.824   6.889  0.4851  1.2161 -1.2969
13757SOL    HW242713   3.483   7.755   6.835  0.7558 -2.0296  1.8195
13758SOL     OW42714   5.819   3.350   1.095  0.0481 -0.0238 -0.2856
13758SOL    HW142715   5.728   3.338   1.070 -0.4365  1.1729  0.7897
13758SOL    HW242716   5.838   3.442   1.080  0.9821 -0.1796 -0.1912
13759SOL     OW42717   6.873   4.541  11.727  0.2882 -0.5535 -0.0599
13759SOL    HW142718   6.924   4.469  11.764 -0.0752 -0.7051  0.1523
13759SOL    HW242719   6.798   4.550  11.786  1.0754  0.9794  0.7855
13760SOL     OW42720   0.381   7.366   8.867  0.1554 -0.1889  0.8586
13760SOL    HW142721   0.427   7.321   8.937  0.3841 -1.6016 -0.1548
13760SOL    HW242722   0.365   7.454   8.901  1.0258 -0.5714  2.3281
13761SOL     OW42723   2.849   3.065   2.477 -0.2020 -0.2074 -0.9707
13761SOL    HW142724   2.760   3.031   2.466 -1.0387  1.9593 -1.5816
13761SOL    HW242725   2.842   3.125   2.552  0.9628 -0.6195 -0.5087
13762SOL     OW42726   4.340   4.592   5.456 -0.1513 -0.3647 -0.1171
13762SOL    HW142727   4.277   4.664   5.463 -0.2424 -0.5037  0.5775
13762SOL    HW242728   4.287   4.513   5.470  0.1502 -0.4920  0.3146
13763SOL     OW42729   2.017   4.954  12.263 -0.4931  0.4706 -0.0795
13763SOL    HW142730   2.066   5.036  12.253 -1.1112  0.6311 -2.7298
13763SOL    HW242731   2.040   4.922  12.350  0.8557  2.7454  0.4833
13764SOL     OW42732   0.059   2.747   2.091 -0.0185  0.2719  0.1647
13764SOL    HW142733  -0.002   2.778   2.158  0.7586 -0.0164  1.0272
13764SOL    HW242734   0.011   2.757   2.008 -1.4627 -0.5102  0.8647
13765SOL     OW42735   2.165   7.880   4.835  0.2618  0.2557  0.6484
13765SOL    HW142736   2.086   7.830   4.853  0.1351  1.0043  2.3087
13765SOL    HW242737   2.216   7.824   4.776 -0.0524 -1.6660  2.1190
13766SOL     OW42738   4.867   4.137   4.808 -0.2705  0.2859  0.2396
13766SOL    HW142739   4.779   4.146   4.845 -0.2589 -0.8168  0.5653
13766SOL    HW242740   4.856   4.159   4.716 -1.1153 -0.8077  0.0515
13767SOL     OW42741   7.864   1.979   6.217  0.3787 -0.0472 -0.3054
13767SOL    HW142742   7.854   1.997   6.310  1.5346  1.0360 -0.3587
13767SOL    HW242743   7.884   1.885   6.212  0.6910 -0.0329  0.5737
13768SOL     OW42744   1.072   0.255   6.678  0.1533  0.1090 -0.1147
13768SOL    HW142745   1.126   0.193   6.727  0.0758  0.3562  0.2933
13768SOL    HW242746   1.100   0.245   6.587  1.4100  0.7394  0.1786
13769SOL     OW42747   1.181   3.523   8.906  0.5809 -0.1500 -0.1199
13769SOL    HW142748   1.108   3.463   8.921  0.5812 -0.3159 -0.7714
13769SOL    HW242749   1.160   3.600   8.959 -0.5834  0.2229 -1.0749
13770SOL     OW42750   6.700   7.061   5.572  0.1672  0.1231 -0.0936
13770SOL    HW142751   6.646   7.048   5.494 -0.6727  0.9080  0.3282
13770SOL    HW242752   6.780   7.012   5.555 -0.4431 -0.5947 -0.9906
13771SOL     OW42753   2.677   2.003   2.906  0.3462  0.0292 -0.4069
13771SOL    HW142754   2.629   1.926   2.874  1.7034 -0.4133 -1.4738
13771SOL    HW242755   2.673   2.065   2.834  2.2242 -0.4214 -0.9593
13772SOL     OW42756   6.993   4.003   5.895 -0.0722  0.1728 -0.3078
13772SOL    HW142757   7.006   4.066   5.824  0.4406  1.6399  1.0336
13772SOL    HW242758   6.966   4.056   5.970  2.7250 -0.8067  1.5634
13773SOL     OW42759   4.013   5.429   8.629  0.2947 -0.3328 -0.1466
13773SOL    HW142760   3.961   5.381   8.564  0.8858 -1.8276  0.4373
13773SOL    HW242761   4.100   5.434   8.591  0.7419 -1.5546  0.6604
13774SOL     OW42762   5.058   3.988   6.974  0.4827 -0.3742  0.5037
13774SOL    HW142763   4.989   3.949   6.920  0.5028  0.4921 -0.1596
13774SOL    HW242764   5.117   4.030   6.912  2.2017 -1.9639  0.9859
13775SOL     OW42765   2.690   2.201   3.449 -0.1886  0.1619  0.0816
13775SOL    HW142766   2.607   2.158   3.470 -0.3805  0.5849  0.2022
13775SOL    HW242767   2.738   2.202   3.532 -0.7958  1.5054  0.4231
13776SOL     OW42768   5.909   7.853   3.299 -0.3142  0.3578 -0.3267
13776SOL    HW142769   5.976   7.910   3.262 -0.1372 -0.8651 -1.9707
13776SOL    HW242770   5.952   7.814   3.376  0.5761  0.2172 -0.8805
13777SOL     OW42771   7.134   3.452   2.868 -0.1143 -0.6706  0.1374
13777SOL    HW142772   7.085   3.416   2.942  0.4107  0.0691  0.8605
13777SOL    HW242773   7.204   3.504   2.908 -0.7558  1.0338 -0.8572
13778SOL     OW42774   4.435   2.948   3.591  0.0699 -0.3501  0.5347
13778SOL    HW142775   4.380   2.943   3.513  0.1494 -0.0068  0.4539
13778SOL    HW242776   4.373   2.938   3.664  0.1230 -1.7329  0.4258
13779SOL     OW42777   1.479   6.146   6.030 -0.1025  0.1758 -0.2843
13779SOL    HW142778   1.448   6.195   6.105  2.3808  1.9983 -0.3119
13779SOL    HW242779   1.414   6.162   5.961 -0.3314  1.9068  0.2854
13780SOL     OW42780   6.556   6.239   3.369  0.1298 -0.2427  0.0691
13780SOL    HW142781   6.488   6.241   3.301 -0.5876 -0.2476  0.7654
13780SOL    HW242782   6.638   6.253   3.322 -0.3053 -0.7070 -0.8512
13781SOL     OW42783   4.257   6.247   1.583  0.5193 -0.5941  0.1224
13781SOL    HW142784   4.316   6.171   1.594  0.5424 -0.5517  0.2870
13781SOL    HW242785   4.239   6.276   1.672 -0.3658 -1.0716  0.1102
13782SOL     OW42786   2.676   1.398   5.754  0.1858 -0.3693 -0.0552
13782SOL    HW142787   2.754   1.362   5.796  0.2037  1.1381  1.3130
13782SOL    HW242788   2.612   1.327   5.756  1.0987 -1.2104 -0.0276
13783SOL     OW42789   2.249   4.243   0.305 -0.5782  0.6912  1.2615
13783SOL    HW142790   2.339   4.275   0.303 -0.9999  1.9380  0.6115
13783SOL    HW242791   2.221   4.248   0.213  0.2441 -4.5512  0.4393
13784SOL     OW42792   7.397   3.597   2.850  0.1890  0.4366 -0.7412
13784SOL    HW142793   7.420   3.562   2.936 -1.3982 -0.7441 -0.7497
13784SOL    HW242794   7.442   3.681   2.845 -0.3402  0.9344  1.6042
13785SOL     OW42795   6.288   1.420   4.719  0.1935  0.2674  0.5628
13785SOL    HW142796   6.291   1.333   4.760  0.0793 -0.2701 -0.5383
13785SOL    HW242797   6.255   1.404   4.631 -1.3310  1.6389  0.8469
13786SOL     OW42798   2.137   5.061   9.754 -0.0215  0.2507  0.3880
13786SOL    HW142799   2.195   5.007   9.700 -0.9293 -0.0918 -0.2658
13786SOL    HW242800   2.056   5.068   9.703 -0.8481  0.0714  1.6277
13787SOL     OW42801   6.488   1.569   9.756 -0.5268  0.1184  0.4342
13787SOL    HW142802   6.569   1.605   9.720  0.6519  1.0063  3.6431
13787SOL    HW242803   6.418   1.615   9.709  0.6438 -1.2278 -2.9691
13788SOL     OW42804   5.079   0.224  10.223 -0.1642 -0.5378  0.2964
13788SOL    HW142805   4.985   0.207  10.235  0.1478 -1.5121  1.4851
13788SOL    HW242806   5.101   0.287  10.292  0.1313 -0.5706  0.2339
13789SOL     OW42807   3.685   6.842   3.797 -0.0324  0.6744  0.1044
13789SOL    HW142808   3.775   6.842   3.830  0.2242  0.0009 -0.5634
13789SOL    HW242809   3.636   6.789   3.861  0.5255 -0.8856 -0.7215
13790SOL     OW42810   1.851   5.737  10.171 -0.0370 -0.7204 -0.7180
13790SOL    HW142811   1.838   5.644  10.153  0.7580 -1.0499  0.3355
13790SOL    HW242812   1.940   5.742  10.207 -0.1548  0.4232 -0.5596
13791SOL     OW42813   5.537   2.070   3.091 -0.5419 -0.3316 -0.1433
13791SOL    HW142814   5.453   2.026   3.078 -0.4000 -0.5177 -0.4524
13791SOL    HW242815   5.518   2.140   3.153 -0.4158 -1.9735  1.8656
13792SOL     OW42816   4.648   2.015   9.399  0.0262 -0.0075 -0.1910
13792SOL    HW142817   4.671   2.108   9.399  2.4760 -0.4773  2.5685
13792SOL    HW242818   4.677   1.984   9.313 -0.3936  1.6368 -0.9819
13793SOL     OW42819   4.202   4.375   8.075 -0.2186 -0.2078  0.0810
13793SOL    HW142820   4.247   4.331   8.146  0.1474  0.2078  0.1135
13793SOL    HW242821   4.234   4.466   8.079 -0.1071 -0.2019 -0.6702
13794SOL     OW42822   2.399   3.297   4.567 -1.3980 -0.1727 -0.5934
13794SOL    HW142823   2.334   3.318   4.634  0.8313  0.9052  1.3582
13794SOL    HW242824   2.458   3.235   4.609 -0.9024 -0.8530 -2.2036
13795SOL     OW42825   3.910   1.573   4.105 -0.0146  0.2521 -0.1872
13795SOL    HW142826   3.897   1.479   4.113 -0.4554  0.2393 -0.9091
13795SOL    HW242827   3.829   1.611   4.141  0.3258  0.3765  0.4679
13796SOL     OW42828   4.706   2.554   0.523  0.3516  0.0574 -0.1638
13796SOL    HW142829   4.629   2.532   0.471 -0.1915  0.3354  0.5055
13796SOL    HW242830   4.761   2.607   0.465  0.0142 -0.0879 -0.6197
13797SOL     OW42831   7.483   6.013   6.334  0.2477  0.4868 -0.1678
13797SOL    HW142832   7.560   5.992   6.387  0.8235  3.0565  0.1160
13797SOL    HW242833   7.471   6.107   6.345 -1.7585  0.4823 -1.8085
13798SOL     OW42834   2.640   0.591  11.160 -0.0818  0.0765  0.8649
13798SOL    HW142835   2.698   0.667  11.168  0.4234 -0.0408 -1.2680
13798SOL    HW242836   2.612   0.591  11.069 -0.2609 -2.1501  0.8618
13799SOL     OW42837   2.179   7.295   5.018 -0.5820  0.4274 -0.2811
13799SOL    HW142838   2.164   7.203   4.997 -0.5320  0.6511 -1.3420
13799SOL    HW242839   2.268   7.298   5.054  0.2951  0.3474 -2.3106
13800SOL     OW42840   4.743   2.052   2.036  0.8957 -0.2543 -0.3317
13800SOL    HW142841   4.666   2.077   2.088 -0.2145 -2.0998 -0.9785
13800SOL    HW242842   4.816   2.096   2.079 -0.5145  1.6804  0.2269
13801SOL     OW42843   5.038   5.521  10.761 -0.0900 -0.0880  0.4173
13801SOL    HW142844   5.044   5.476  10.845 -0.8077  0.6305  0.8674
13801SOL    HW242845   4.987   5.462  10.705 -2.1538  0.6810  1.3932
13802SOL     OW42846   3.366   1.940  10.569 -0.0725  0.8694  0.1746
13802SOL    HW142847   3.413   1.867  10.610 -0.0529  1.4763  1.2624
13802SOL    HW242848   3.274   1.921  10.585 -0.2623 -0.3305 -1.9760
13803SOL     OW42849   3.275   0.674   3.591 -0.2495 -0.2389 -0.3809
13803SOL    HW142850   3.261   0.646   3.500  0.5701 -2.7489  0.1707
13803SOL    HW242851   3.366   0.649   3.609  1.0065  3.9069 -0.0370
13804SOL     OW42852   6.236   4.688   6.717  0.2965 -0.4886  0.1474
13804SOL    HW142853   6.278   4.710   6.800  1.1824 -1.3772 -0.0513
13804SOL    HW242854   6.252   4.765   6.661 -0.4226  0.1678  0.8263
13805SOL     OW42855   5.046   3.914   3.229  0.1941 -0.4605 -0.4389
13805SOL    HW142856   4.985   3.841   3.214 -2.2247  1.2323  0.3989
13805SOL    HW242857   5.065   3.947   3.142 -0.8851 -0.4727 -0.7017
13806SOL     OW42858   7.030   3.781  11.593 -0.3236 -0.5291 -0.0934
13806SOL    HW142859   7.099   3.835  11.632  0.1964 -1.1163 -0.1933
13806SOL    HW242860   7.025   3.704  11.650 -1.6671  0.0060  0.5591
13807SOL     OW42861   2.663   1.850   6.419  0.1032  0.8759 -0.5162
13807SOL    HW142862   2.717   1.914   6.466  1.6520 -1.5201  1.2078
13807SOL    HW242863   2.710   1.834   6.337  2.4568 -1.4609  1.1224
13808SOL     OW42864   0.639   2.232   1.850 -0.0386 -0.1512  0.0267
13808SOL    HW142865   0.656   2.155   1.904 -1.4951 -1.0619 -0.7691
13808SOL    HW242866   0.551   2.260   1.874 -0.0661  0.4235 -0.7050
13809SOL     OW42867   7.818   7.109   5.290 -0.4301  0.0579  0.2110
13809SOL    HW142868   7.748   7.044   5.283  0.2820 -0.9029  1.5566
13809SOL    HW242869   7.848   7.122   5.200 -0.4624 -1.6276 -0.0659
13810SOL     OW42870   2.886   4.156   0.237  0.6883  0.2557 -0.5737
13810SOL    HW142871   2.846   4.089   0.181  0.7785 -0.0112 -0.3229
13810SOL    HW242872   2.867   4.239   0.193  2.1077 -0.0480 -1.8514
13811SOL     OW42873   1.331   0.798  11.819 -0.1093 -0.0536 -0.0272
13811SOL    HW142874   1.409   0.853  11.825  0.0601 -0.2928 -0.0405
13811SOL    HW242875   1.271   0.834  11.885  0.4156 -0.5136  0.7169
13812SOL     OW42876   5.650   5.380   2.007  0.0712  0.2316 -0.1616
13812SOL    HW142877   5.647   5.453   1.946 -1.2140 -1.3231 -2.0877
13812SOL    HW242878   5.742   5.359   2.016  0.3019  0.6259 -1.4268
13813SOL     OW42879   4.157   5.032  10.518  0.2374  0.1956  0.3741
13813SOL    HW142880   4.112   4.991  10.591  1.9528 -0.7700  0.9567
13813SOL    HW242881   4.246   5.046  10.549  1.0228 -0.2426 -1.4983
13814SOL     OW42882   4.220   3.800  10.459 -0.0563  0.0857 -0.0723
13814SOL    HW142883   4.282   3.872  10.467 -2.3205  1.9108  2.8038
13814SOL    HW242884   4.274   3.721  10.457  2.3817  1.6850 -0.4871
13815SOL     OW42885   4.648   5.524  10.639  0.4575  0.4080 -0.8218
13815SOL    HW142886   4.732   5.484  10.618  0.5377 -1.2630  2.1513
13815SOL    HW242887   4.582   5.461  10.610  0.2154  1.2906 -2.2900
13816SOL     OW42888   5.439   0.128   8.401  0.5314  0.1405 -0.2294
13816SOL    HW142889   5.391   0.207   8.427  0.2440 -0.7177  2.0390
13816SOL    HW242890   5.495   0.156   8.329 -1.0952  1.9058 -0.8907
13817SOL     OW42891   2.466   6.337   8.296  0.4637  0.1108  0.5439
13817SOL    HW142892   2.549   6.383   8.306  0.7104  0.0625 -1.1154
13817SOL    HW242893   2.491   6.246   8.279  0.0808  0.1165 -0.0804
13818SOL     OW42894   7.016   1.779   9.273 -0.3492 -0.3611 -0.4738
13818SOL    HW142895   7.038   1.816   9.358 -0.8560 -2.0037  0.4198
13818SOL    HW242896   6.968   1.848   9.228 -1.3467  0.0644  1.1626
13819SOL     OW42897   7.391   6.013   3.547  0.3362  0.2143  0.0554
13819SOL    HW142898   7.486   6.017   3.551  0.3513  2.7905 -0.7859
13819SOL    HW242899   7.370   6.029   3.455 -0.9165 -0.4685  0.1957
13820SOL     OW42900   2.017   0.153   9.538 -0.0341  0.1795  0.0770
13820SOL    HW142901   2.109   0.130   9.523  0.3053  0.4383  1.6793
13820SOL    HW242902   2.001   0.224   9.476  0.8899  0.2527 -0.1063
13821SOL     OW42903   4.804   5.325   4.180 -0.1016 -0.1544  0.6774
13821SOL    HW142904   4.748   5.276   4.239 -0.5029 -1.4418 -0.6993
13821SOL    HW242905   4.886   5.275   4.178 -0.3169 -0.5031 -0.3068
13822SOL     OW42906   5.379   2.884   1.254  0.7564  0.3354 -0.0943
13822SOL    HW142907   5.328   2.849   1.182  1.0620 -0.6054  0.1287
13822SOL    HW242908   5.320   2.882   1.329  0.4962  1.1448 -0.2630
13823SOL     OW42909   1.362   7.071   8.662 -0.4640 -0.2433  0.5994
13823SOL    HW142910   1.279   7.114   8.683 -0.7083 -0.7059  0.5889
13823SOL    HW242911   1.365   7.070   8.566 -0.4468 -0.2283  0.6000
13824SOL     OW42912   3.249   6.483   4.689  0.4933 -0.6059  0.7838
13824SOL    HW142913   3.214   6.414   4.744 -0.4525 -0.4436  0.4098
13824SOL    HW242914   3.321   6.521   4.740  0.1947 -1.0257  1.5246
13825SOL     OW42915   3.764   7.898   4.707  0.2846 -0.4614 -0.0466
13825SOL    HW142916   3.673   7.867   4.714  0.8732 -1.9659  1.5795
13825SOL    HW242917   3.814   7.819   4.686  1.5568 -0.2277  1.8964
13826SOL     OW42918   4.063   3.139  11.322  0.2539 -0.0825  0.1302
13826SOL    HW142919   4.047   3.140  11.416 -1.6090  1.0333 -0.1416
13826SOL    HW242920   4.096   3.226  11.302 -1.5834  0.5310 -0.5116
13827SOL     OW42921   1.912   5.916   5.339  0.1974  0.0059  0.0364
13827SOL    HW142922   1.952   5.892   5.422  0.3298 -0.3514 -0.1282
13827SOL    HW242923   1.982   5.960   5.290  0.2358 -0.1490 -0.0466
13828SOL     OW42924   7.369   7.108   4.560 -0.1930  0.8899 -0.2561
13828SOL    HW142925   7.457   7.091   4.593 -0.3221 -0.7370 -0.6902
13828SOL    HW242926   7.331   7.169   4.624  0.5966  0.1437  0.9598
13829SOL     OW42927   0.743   0.986  10.478  0.0293  0.1640 -0.0577
13829SOL    HW142928   0.754   0.893  10.457 -0.7353  0.1486 -0.4486
13829SOL    HW242929   0.806   1.002  10.548 -0.4905 -0.8919  0.6947
13830SOL     OW42930   4.596   5.138   6.040 -0.2375  0.1816  0.4481
13830SOL    HW142931   4.687   5.168   6.049 -0.2610  0.2981  0.3038
13830SOL    HW242932   4.587   5.118   5.947  0.1408 -1.4577  0.7298
13831SOL     OW42933   5.450   0.207   7.759  0.3015  0.1409 -0.0616
13831SOL    HW142934   5.373   0.261   7.743 -0.7586 -1.4406 -0.5399
13831SOL    HW242935   5.495   0.250   7.832 -0.9109  1.2325  0.0680
13832SOL     OW42936   6.659   2.085   4.222 -0.2016  0.2562  0.4748
13832SOL    HW142937   6.754   2.096   4.225 -0.2974  1.4260 -0.3213
13832SOL    HW242938   6.625   2.169   4.191 -1.6549  0.4730  2.4473
13833SOL     OW42939   0.781   2.295   7.891  0.3100 -0.2995  0.4043
13833SOL    HW142940   0.793   2.333   7.804 -0.3325  0.4397  0.6332
13833SOL    HW242941   0.698   2.248   7.886  1.0262 -1.6034  0.1636
13834SOL     OW42942   6.572   6.365   3.603  0.3000 -0.1150  0.3782
13834SOL    HW142943   6.541   6.450   3.573 -0.1662 -0.9616 -1.7559
13834SOL    HW242944   6.542   6.304   3.536  2.3569 -1.6797  0.7883
13835SOL     OW42945   7.158   5.560   3.324 -0.3447 -0.4096 -1.0462
13835SOL    HW142946   7.212   5.629   3.363 -0.3031 -0.6843 -0.5993
13835SOL    HW242947   7.221   5.504   3.279 -0.0482 -1.4836  0.6004
13836SOL     OW42948   3.441   7.578   7.097 -0.5405 -0.0746 -0.0504
13836SOL    HW142949   3.423   7.631   7.020 -0.3846 -0.3430 -0.2738
13836SOL    HW242950   3.422   7.488   7.069 -1.4641 -0.0650  0.5308
13837SOL     OW42951   4.287   0.648  12.333 -0.1910 -0.5725 -0.4027
13837SOL    HW142952   4.241   0.576  12.290  0.4674 -0.1103 -1.9611
13837SOL    HW242953   4.240   0.662  12.415  0.6524 -3.8969  0.8166
13838SOL     OW42954   0.869   6.135   9.398  0.3019  0.0992  0.6140
13838SOL    HW142955   0.776   6.138   9.421  0.2312 -0.3645  0.3970
13838SOL    HW242956   0.869   6.119   9.303  0.5940  1.1840  0.4190
13839SOL     OW42957   2.820   4.431  11.961  0.0187  0.5043  0.0041
13839SOL    HW142958   2.808   4.365  11.893  1.6307  2.0181 -1.8647
13839SOL    HW242959   2.850   4.509  11.915 -1.3331  2.4600  2.1756
13840SOL     OW42960   2.987   5.179   9.558  0.5356 -0.1880 -0.1657
13840SOL    HW142961   2.917   5.166   9.495  1.0266 -0.6215 -0.6385
13840SOL    HW242962   2.959   5.253   9.612 -0.1099 -0.1292 -0.5815
13841SOL     OW42963   5.177   6.662  10.150 -0.0906  0.1801  0.4878
13841SOL    HW142964   5.221   6.581  10.126  0.9832  0.7970  0.2961
13841SOL    HW242965   5.087   6.636  10.168  0.4647 -1.2306  1.4432
13842SOL     OW42966   2.210   6.684   0.395  0.4019 -0.0258  0.3073
13842SOL    HW142967   2.181   6.620   0.330  0.4731  0.3513 -0.1046
13842SOL    HW242968   2.160   6.663   0.474  0.4118 -0.5725  0.1670
13843SOL     OW42969   3.488   4.789   0.523 -0.2354 -0.3225  0.5525
13843SOL    HW142970   3.583   4.793   0.512 -0.4007 -0.3008 -1.1939
13843SOL    HW242971   3.474   4.723   0.590  0.9825 -1.0577  0.1102
13844SOL     OW42972   1.886   5.097   9.139 -0.2626  0.3428 -0.1625
13844SOL    HW142973   1.924   5.128   9.057 -0.4858 -2.1746 -1.3118
13844SOL    HW242974   1.806   5.148   9.150  1.8995  3.8153  0.8767
13845SOL     OW42975   0.692   0.467   8.011  0.5624 -0.1155  0.0161
13845SOL    HW142976   0.728   0.379   7.996  0.7178 -0.4059  1.9150
13845SOL    HW242977   0.601   0.451   8.034 -0.2691  0.4717 -2.5709
13846SOL     OW42978   3.382   4.859   6.623 -0.2900  0.4157  0.5035
13846SOL    HW142979   3.327   4.796   6.670  0.8587 -0.6889  0.4402
13846SOL    HW242980   3.411   4.812   6.545  1.3940  0.6308  0.9536
13847SOL     OW42981   3.832   3.539   1.762  0.0040  0.3452  0.3515
13847SOL    HW142982   3.838   3.460   1.815  0.5317  0.1848  0.0497
13847SOL    HW242983   3.917   3.547   1.719 -0.7100 -0.0411 -1.1961
13848SOL     OW42984   4.093   5.846   4.861 -0.7869  0.0784  0.3723
13848SOL    HW142985   4.081   5.753   4.841 -0.7696  0.3008 -0.6944
13848SOL    HW242986   4.021   5.890   4.816  0.5722  0.8220 -1.1511
13849SOL     OW42987   1.751   1.658  10.998  0.3236  0.2416 -0.1506
13849SOL    HW142988   1.740   1.626  10.909 -1.0281  0.3562 -0.0428
13849SOL    HW242989   1.845   1.671  11.007  0.3842  1.6623 -2.0751
13850SOL     OW42990   2.034   3.565   7.931  0.1421  0.2690  0.1276
13850SOL    HW142991   2.107   3.527   7.980  0.1565 -0.3280 -0.3428
13850SOL    HW242992   2.050   3.538   7.840 -0.1952  0.8704 -0.1149
13851SOL     OW42993   7.405   5.540   7.106  0.0268 -0.0755 -0.1313
13851SOL    HW142994   7.401   5.630   7.140 -1.7298  0.3101 -1.2224
13851SOL    HW242995   7.410   5.485   7.184 -1.8341  0.8796  0.7369
13852SOL     OW42996   3.834   6.669   9.698 -0.1168  0.6334  0.1611
13852SOL    HW142997   3.835   6.583   9.740  0.5078 -0.9640 -2.7942
13852SOL    HW242998   3.775   6.722   9.751 -2.0405 -2.2016  1.0601
13853SOL     OW42999   4.506   1.384   2.654  0.6823  0.1151  0.4406
13853SOL    HW143000   4.567   1.310   2.656 -0.0174 -0.5006  0.0183
13853SOL    HW243001   4.454   1.369   2.574  0.2280  0.8172  0.6000
13854SOL     OW43002   5.279   7.216   9.102  0.3281 -0.1370 -0.1443
13854SOL    HW143003   5.315   7.154   9.166  0.7454  0.7239  0.4755
13854SOL    HW243004   5.200   7.173   9.070  0.3131 -0.7582  0.6650
13855SOL     OW43005   1.269   4.002   1.087 -0.7920 -0.2658  0.1959
13855SOL    HW143006   1.250   3.953   1.007 -1.9930  0.4523  0.0208
13855SOL    HW243007   1.233   4.089   1.071  2.6810  1.2467 -0.1295
13856SOL     OW43008   4.612   4.716   3.261  0.1558 -0.4627 -0.1438
13856SOL    HW143009   4.622   4.810   3.253  0.6139 -0.5608 -0.7265
13856SOL    HW243010   4.554   4.691   3.189 -0.0749 -0.6086  0.0892
13857SOL     OW43011   6.606   5.871  11.900  0.0631  0.1984 -0.1266
13857SOL    HW143012   6.614   5.800  11.837  0.7916 -0.1095  0.3101
13857SOL    HW243013   6.547   5.837  11.968 -0.3192  0.3492 -0.3787
13858SOL     OW43014   4.914   7.819   1.192  0.2402  0.1011  0.2473
13858SOL    HW143015   4.946   7.767   1.266  0.4304 -0.1393 -0.0002
13858SOL    HW243016   4.829   7.781   1.171  0.5624 -0.3781 -0.1964
13859SOL     OW43017   3.244   5.953   5.594  0.3967 -0.4103 -0.2427
13859SOL    HW143018   3.289   6.009   5.531 -1.9514  0.9763 -0.8137
13859SOL    HW243019   3.203   5.884   5.541  0.5925 -0.7919  0.0934
13860SOL     OW43020   6.048   3.283  10.323 -0.5378  0.0313  0.7605
13860SOL    HW143021   6.011   3.284  10.411 -0.0457 -0.0386  0.9723
13860SOL    HW243022   5.985   3.233  10.271 -0.5120 -0.4814  1.2179
13861SOL     OW43023   2.457   3.651   7.833 -0.6826 -0.5920  0.7244
13861SOL    HW143024   2.461   3.727   7.892 -1.4971 -0.5285  0.7086
13861SOL    HW243025   2.512   3.585   7.875  0.3984  0.1505  0.5132
13862SOL     OW43026   6.894   1.066  10.728 -0.2792 -0.5278  0.2985
13862SOL    HW143027   6.861   1.115  10.653 -0.8946 -1.5588 -0.1251
13862SOL    HW243028   6.961   1.008  10.692  0.9531  0.4809  0.9103
13863SOL     OW43029   0.289   6.700   1.904 -0.2385 -0.0429  0.6544
13863SOL    HW143030   0.289   6.763   1.976  2.6436 -1.1156  1.7107
13863SOL    HW243031   0.362   6.728   1.849 -0.1009 -1.4026  0.1293
13864SOL     OW43032   3.689   1.247   6.879 -0.7943 -0.1369 -0.5315
13864SOL    HW143033   3.604   1.289   6.868 -0.0272  2.1057  1.3288
13864SOL    HW243034   3.728   1.292   6.954  1.7245 -1.6339 -0.8477
13865SOL     OW43035   2.407   7.821   3.446 -0.3527 -0.2439  0.0996
13865SOL    HW143036   2.460   7.742   3.451  0.1260 -0.0216 -1.0437
13865SOL    HW243037   2.455   7.887   3.497 -0.3931 -0.4938  0.4623
13866SOL     OW43038   1.386   5.925  10.358  0.3353  0.2755  0.0699
13866SOL    HW143039   1.437   5.879  10.292 -0.0731  1.5633 -1.1979
13866SOL    HW243040   1.348   5.856  10.412  1.3848 -0.7801 -0.5088
13867SOL     OW43041   6.961   5.038   2.840  0.2526 -0.1113 -0.0984
13867SOL    HW143042   6.966   4.943   2.831 -0.6910 -0.0349 -1.8667
13867SOL    HW243043   7.037   5.061   2.894  0.1381 -1.9056  0.9298
13868SOL     OW43044   4.134   0.357   9.204  0.1232  0.4689  0.0235
13868SOL    HW143045   4.116   0.291   9.271  0.9866 -0.3393 -0.5283
13868SOL    HW243046   4.227   0.374   9.211  0.1760  0.5552 -0.8088
13869SOL     OW43047   4.701   1.864   4.029 -0.3717 -0.0067  0.1797
13869SOL    HW143048   4.770   1.925   4.057  0.7000 -1.2880  0.4420
13869SOL    HW243049   4.620   1.905   4.059  0.2267  1.7055 -0.4266
13870SOL     OW43050   0.453   6.328  11.434 -0.2599  0.5522 -0.1196
13870SOL    HW143051   0.417   6.408  11.472  0.5805  0.6534  0.4977
13870SOL    HW243052   0.540   6.352  11.403 -0.6576  0.2859 -1.4898
13871SOL     OW43053   2.403   5.837   8.004 -0.5692 -0.2457  0.2699
13871SOL    HW143054   2.327   5.822   7.949 -1.3223 -0.8722  1.4438
13871SOL    HW243055   2.476   5.845   7.942 -1.7676  1.9344 -0.9766
13872SOL     OW43056   1.279   2.575   5.382  0.1337  0.0423  0.3755
13872SOL    HW143057   1.210   2.523   5.339  2.2780 -1.0088 -2.0265
13872SOL    HW243058   1.299   2.525   5.461 -0.8893 -0.3935  0.3847
13873SOL     OW43059   1.537   6.631   8.051  0.4360  0.2595  0.2870
13873SOL    HW143060   1.472   6.561   8.054  1.4040 -0.7447 -1.1546
13873SOL    HW243061   1.518   6.684   8.129 -1.8544 -0.2035  0.1268
13874SOL     OW43062   2.810   2.044  10.921 -0.3433 -0.2111  0.3929
13874SOL    HW143063   2.863   2.011  10.994  0.3387 -0.5132 -0.2263
13874SOL    HW243064   2.744   2.100  10.963  1.7319  1.9192  1.0726
13875SOL     OW43065   6.125   7.794   2.896  0.2715  0.4968 -0.0389
13875SOL    HW143066   6.164   7.715   2.859 -0.7941 -0.1457  0.1679
13875SOL    HW243067   6.031   7.782   2.886  0.0687  1.5328  0.4227
13876SOL     OW43068   6.745   1.412   5.936 -0.5279  0.0826  0.3592
13876SOL    HW143069   6.788   1.434   6.019 -1.7477  0.1462  0.9932
13876SOL    HW243070   6.666   1.466   5.934 -2.4698 -2.5413  0.9197
13877SOL     OW43071   3.486   5.729  11.522  0.0754  0.8233 -0.1508
13877SOL    HW143072   3.502   5.817  11.556 -2.3010  1.3343 -0.2157
13877SOL    HW243073   3.469   5.742  11.428 -2.1925  0.6092  0.1764
13878SOL     OW43074   5.270   1.148   9.496  0.4588  0.7526  0.2561
13878SOL    HW143075   5.326   1.090   9.548  0.1792 -0.0058 -0.2835
13878SOL    HW243076   5.312   1.234   9.504 -0.4423  1.0416  3.0650
13879SOL     OW43077   2.708   7.550   0.889  0.4367  0.1889 -0.1681
13879SOL    HW143078   2.756   7.630   0.910 -0.6882  0.3285  2.1746
13879SOL    HW243079   2.751   7.482   0.942 -0.4736 -0.1551  0.1415
13880SOL     OW43080   2.644   3.987   7.033  0.1384  0.4233 -0.3827
13880SOL    HW143081   2.709   3.921   7.058  1.6942  1.7881 -0.6646
13880SOL    HW243082   2.683   4.031   6.957  0.2795  3.2010  1.1661
13881SOL     OW43083   7.437   6.782   5.683 -0.1984  0.0164  0.1846
13881SOL    HW143084   7.469   6.864   5.645  0.9508 -0.6917 -0.4072
13881SOL    HW243085   7.383   6.743   5.614  0.3397 -0.3628 -0.0205
13882SOL     OW43086   5.640   2.426   9.450  0.3494 -0.6637 -0.0464
13882SOL    HW143087   5.661   2.339   9.484 -1.2741 -1.1598 -0.2203
13882SOL    HW243088   5.567   2.456   9.503  1.5749  1.1136  0.7440
13883SOL     OW43089   3.370   2.339  11.123  0.0277 -0.0379 -0.4526
13883SOL    HW143090   3.465   2.326  11.123  0.0904  0.3467  0.6204
13883SOL    HW243091   3.346   2.344  11.215 -0.9085  0.8406 -0.7206
13884SOL     OW43092   2.461   1.528  10.676 -0.3086  0.0150  0.9224
13884SOL    HW143093   2.373   1.525  10.713 -1.3404  2.1118 -1.0678
13884SOL    HW243094   2.478   1.439  10.646 -1.3281 -0.6289  2.1805
13885SOL     OW43095   2.294   4.960   6.640 -0.2876 -0.0219  0.0748
13885SOL    HW143096   2.262   4.872   6.620 -2.6716  0.7241  0.2927
13885SOL    HW243097   2.355   4.947   6.713 -1.7493 -1.3664  1.1411
13886SOL     OW43098   3.929   1.702  10.877  0.1063  0.5745 -0.1887
13886SOL    HW143099   3.960   1.772  10.820  0.7678  0.7043  0.3188
13886SOL    HW243100   3.862   1.744  10.931 -0.1624  0.5774 -0.5214
13887SOL     OW43101   0.642   7.846   5.314  0.4440 -0.8441 -0.4403
13887SOL    HW143102   0.653   7.778   5.248  4.1450 -0.2589 -0.6583
13887SOL    HW243103   0.650   7.928   5.267 -0.3551 -0.3061  0.3174
13888SOL     OW43104   6.140   2.903   6.846  0.3547  0.4386  0.1146
13888SOL    HW143105   6.047   2.900   6.823 -0.2771  1.0977  2.3197
13888SOL    HW243106   6.175   2.978   6.796  0.2408 -0.9921 -2.2560
13889SOL     OW43107   0.314   4.050  10.996  0.3282  0.1138  0.4457
13889SOL    HW143108   0.338   3.971  11.045 -2.1369 -0.8835  0.2245
13889SOL    HW243109   0.269   4.105  11.061 -1.0525 -0.2746 -0.1328
13890SOL     OW43110   2.101   0.869   8.015 -0.3608  0.3169 -0.0605
13890SOL    HW143111   2.193   0.887   7.995 -0.1426 -1.1088 -0.4926
13890SOL    HW243112   2.103   0.832   8.104 -0.4147 -0.4027 -0.3515
13891SOL     OW43113   5.889   4.554   2.224 -0.1070 -0.8637  0.0801
13891SOL    HW143114   5.882   4.590   2.136 -0.6598 -0.1301  0.4113
13891SOL    HW243115   5.831   4.608   2.277  0.8679 -0.7435  1.0674
13892SOL     OW43116   2.136   0.025   5.156  0.2957 -0.2530  0.1531
13892SOL    HW143117   2.120   0.118   5.136 -0.3947 -0.0744  1.4186
13892SOL    HW243118   2.217   0.004   5.110  0.6651  1.0951  0.1399
13893SOL     OW43119   1.171   7.074   4.661  0.3237  0.0636 -0.3001
13893SOL    HW143120   1.163   7.169   4.668  0.7817  0.1492 -0.8814
13893SOL    HW243121   1.187   7.044   4.750  0.5089  0.5598 -0.1655
13894SOL     OW43122   4.404   1.025   3.694  0.2926  0.7107  0.4054
13894SOL    HW143123   4.477   1.022   3.756 -0.0018  0.1507  0.7231
13894SOL    HW243124   4.441   1.069   3.617  0.6094  1.5900  1.0324
13895SOL     OW43125   5.179   1.276   4.597 -0.2945  0.2399 -0.0167
13895SOL    HW143126   5.206   1.305   4.509  0.0265 -2.0962 -0.7820
13895SOL    HW243127   5.259   1.242   4.636 -0.3577  1.6084  1.3891
13896SOL     OW43128   0.803   5.093  10.598 -0.1639  0.5879  0.0123
13896SOL    HW143129   0.822   5.005  10.565  1.3656  0.8377  0.1899
13896SOL    HW243130   0.819   5.150  10.523  1.0013  0.9220  0.5020
13897SOL     OW43131   7.721   5.308   6.101 -0.5677  0.0617  0.6038
13897SOL    HW143132   7.795   5.303   6.162  1.5563 -0.3792 -1.8673
13897SOL    HW243133   7.684   5.220   6.102 -0.3729 -0.0207  1.0195
13898SOL     OW43134   7.360   7.507   9.154  0.1339  0.3459  0.2345
13898SOL    HW143135   7.362   7.428   9.100  1.3043 -0.5405  1.5113
13898SOL    HW243136   7.300   7.486   9.225 -0.1884  0.9244  0.1398
13899SOL     OW43137   6.167   2.917   9.851 -0.4497  0.3721  0.3684
13899SOL    HW143138   6.089   2.962   9.820  0.8855  1.4283 -1.6924
13899SOL    HW243139   6.139   2.826   9.864 -1.7520  0.4486 -1.5371
13900SOL     OW43140   4.242   5.409   4.898 -0.5656  0.5422 -0.6197
13900SOL    HW143141   4.312   5.471   4.876 -0.0293  0.1481 -0.0705
13900SOL    HW243142   4.167   5.438   4.847  0.3936  0.1397 -2.3706
13901SOL     OW43143   1.822   7.360   3.269  0.0685  0.4278 -0.1974
13901SOL    HW143144   1.912   7.382   3.292  0.8731 -1.0718 -1.6901
13901SOL    HW243145   1.816   7.265   3.281 -1.3953  0.5277  0.0998
13902SOL     OW43146   0.115   7.869   8.333  0.0477  0.1532  0.4229
13902SOL    HW143147   0.070   7.882   8.417 -2.0861 -1.4003 -0.3925
13902SOL    HW243148   0.084   7.784   8.302  1.1523  0.4694 -1.7398
13903SOL     OW43149   3.140   2.830  12.296  0.6155 -0.2648  0.8634
13903SOL    HW143150   3.197   2.856  12.223 -0.4623  0.4396  0.2531
13903SOL    HW243151   3.086   2.907  12.313 -1.0529 -1.3306  0.5835
13904SOL     OW43152   4.961   3.749   8.342 -0.0177  0.2183  0.1082
13904SOL    HW143153   5.039   3.780   8.296  1.3878  1.1243  2.8710
13904SOL    HW243154   4.890   3.806   8.311  0.2626 -0.6917 -2.5250
13905SOL     OW43155   1.768   3.507  11.565 -0.5506  0.1413  0.1152
13905SOL    HW143156   1.708   3.566  11.609 -0.3863 -0.2263  0.8435
13905SOL    HW243157   1.763   3.426  11.615 -1.8070 -0.9583 -1.6510
13906SOL     OW43158   0.261   5.422  11.352 -0.0490  0.1706  0.6051
13906SOL    HW143159   0.308   5.503  11.332 -1.6476  0.9709 -0.0437
13906SOL    HW243160   0.311   5.354  11.306  1.1674  0.7972  0.9524
13907SOL     OW43161   6.967   7.031  10.266 -0.1456  0.4698  0.1741
13907SOL    HW143162   7.012   7.030  10.182 -0.4286 -0.6872  0.0223
13907SOL    HW243163   7.026   7.079  10.324  0.5256  0.3838 -0.4278
13908SOL     OW43164   5.131   5.084  10.226 -0.0588  0.1319  0.5090
13908SOL    HW143165   5.219   5.121  10.224  0.1704 -0.4029  0.3238
13908SOL    HW243166   5.104   5.081  10.134  0.2281 -0.8400  0.4416
13909SOL     OW43167   6.840   4.814   1.757 -0.8653  0.0061 -0.2750
13909SOL    HW143168   6.908   4.811   1.824 -1.1974  0.1708  0.0762
13909SOL    HW243169   6.758   4.803   1.806 -1.0209 -1.4691 -0.8143
13910SOL     OW43170   2.665   3.491   6.199  0.1897  0.4901  0.0207
13910SOL    HW143171   2.650   3.561   6.262  0.0111  0.5067 -0.0416
13910SOL    HW243172   2.757   3.500   6.175  0.2278  0.5564  0.1918
13911SOL     OW43173   4.748   7.850   0.615  0.1666  0.0694  0.6364
13911SOL    HW143174   4.800   7.786   0.567 -1.5666 -0.5812 -0.4475
13911SOL    HW243175   4.784   7.935   0.588  1.0847 -0.3687  0.4383
13912SOL     OW43176   3.368   7.354   9.692  0.3325  0.3649  0.2258
13912SOL    HW143177   3.413   7.312   9.619  0.2615 -0.4140  0.6171
13912SOL    HW243178   3.410   7.440   9.700  2.8671 -0.8595  1.5270
13913SOL     OW43179   7.199   2.396   4.615  0.2227  0.1616 -0.3884
13913SOL    HW143180   7.195   2.419   4.522  3.4497  0.0447 -0.6672
13913SOL    HW243181   7.195   2.300   4.616  0.3468  0.1563 -0.4155
13914SOL     OW43182   1.781   6.597   6.229  0.4888 -0.4665 -0.1083
13914SOL    HW143183   1.726   6.674   6.213  0.9691  0.4680  2.3340
13914SOL    HW243184   1.731   6.524   6.193 -0.4110  0.8424 -1.6618
13915SOL     OW43185   1.518   5.107  10.320 -0.3549 -0.2420  0.5193
13915SOL    HW143186   1.422   5.106  10.329 -0.3904 -1.6336  0.2234
13915SOL    HW243187   1.540   5.020  10.287  1.0320  0.0258  0.6698
13916SOL     OW43188   0.408   4.231   5.227  0.0129  0.3831  0.3364
13916SOL    HW143189   0.361   4.153   5.198  2.3349 -1.1967  0.5761
13916SOL    HW243190   0.396   4.294   5.155 -0.9710 -0.5780 -0.3674
13917SOL     OW43191   7.552   5.131   9.945 -0.1669 -0.0805  0.3549
13917SOL    HW143192   7.602   5.098   9.871  1.8997 -0.8580  1.9736
13917SOL    HW243193   7.578   5.222   9.954  0.8916 -0.4297  1.0703
13918SOL     OW43194   1.446   7.517   2.635  0.3608 -0.3661 -0.1434
13918SOL    HW143195   1.411   7.505   2.723  1.9692 -2.5366  0.2898
13918SOL    HW243196   1.425   7.435   2.590 -0.0992  0.5631 -1.6783
13919SOL     OW43197   7.074   1.714  11.292  0.1466  0.1126 -0.2758
13919SOL    HW143198   7.158   1.749  11.323  0.0248 -1.1198  1.6006
13919SOL    HW243199   7.089   1.620  11.285 -0.5100  0.1175 -1.9248
13920SOL     OW43200   6.721   1.461   1.338  0.2506 -0.2843 -0.2630
13920SOL    HW143201   6.790   1.437   1.276  1.6293  0.5987  0.8614
13920SOL    HW243202   6.693   1.378   1.376  2.0761 -0.5400  0.6366
13921SOL     OW43203   6.231   2.203   3.341  0.4333 -0.4126 -0.1615
13921SOL    HW143204   6.259   2.120   3.380  1.2404 -0.4315 -0.7577
13921SOL    HW243205   6.261   2.270   3.404 -2.7551 -0.6480  1.8169
13922SOL     OW43206   6.841   1.694  10.896  0.2940  0.0923  0.0215
13922SOL    HW143207   6.777   1.627  10.920  1.2439 -1.4100 -1.4407
13922SOL    HW243208   6.792   1.776  10.899 -1.7961 -1.0201 -1.3199
13923SOL     OW43209   1.329   7.647   4.724  0.1700 -0.4840  0.6462
13923SOL    HW143210   1.272   7.665   4.798 -0.7919 -0.2439 -0.1309
13923SOL    HW243211   1.341   7.732   4.681  1.3603 -0.4748  0.9594
13924SOL     OW43212   6.359   4.140   4.370 -0.2399 -0.1462 -0.2865
13924SOL    HW143213   6.367   4.044   4.366 -2.5838 -0.3939 -0.5987
13924SOL    HW243214   6.397   4.164   4.454  0.0974 -1.4093 -0.0604
13925SOL     OW43215   2.741   0.251   2.579 -0.3487 -0.6598 -0.2440
13925SOL    HW143216   2.728   0.302   2.659 -0.4101 -1.8731  0.5506
13925SOL    HW243217   2.835   0.257   2.561 -0.3711 -0.1950 -0.2113
13926SOL     OW43218   2.425   2.955   1.721 -0.1597 -0.1809  0.2676
13926SOL    HW143219   2.386   2.999   1.645 -0.0094 -1.0546 -0.3302
13926SOL    HW243220   2.469   3.025   1.769  0.1891  0.3102 -0.7327
13927SOL     OW43221   5.624   2.619   1.098 -0.4128 -0.5282 -0.4371
13927SOL    HW143222   5.637   2.713   1.107  1.7747 -0.8931  0.8128
13927SOL    HW243223   5.588   2.591   1.183  1.8331 -1.1951  0.3653
13928SOL     OW43224   0.746   7.658   3.351 -0.6166  0.3533  0.4501
13928SOL    HW143225   0.722   7.677   3.442  1.9038  0.7085  1.1160
13928SOL    HW243226   0.761   7.564   3.350  1.0687  0.5881  0.9003
13929SOL     OW43227   5.566   7.946   9.715 -0.1269 -0.0671  0.6247
13929SOL    HW143228   5.578   7.993   9.798  2.2112 -0.6595  0.6997
13929SOL    HW243229   5.545   7.857   9.741 -2.3662  0.3689  0.4974
13930SOL     OW43230   0.571   4.273   6.010  0.7516  0.2246  0.3116
13930SOL    HW143231   0.517   4.232   5.943  0.5302 -0.8320  1.1107
13930SOL    HW243232   0.658   4.235   5.997  0.2557 -1.5934  1.8883
13931SOL     OW43233   6.423   3.924   6.289  0.6818  0.1205 -0.1029
13931SOL    HW143234   6.472   3.886   6.216  1.1600 -0.6096  0.5814
13931SOL    HW243235   6.342   3.957   6.249  0.7933 -0.5403 -0.9103
13932SOL     OW43236   5.594   0.406   2.840  0.5823  0.0516  0.1681
13932SOL    HW143237   5.525   0.468   2.816  0.1235 -0.0206  1.2407
13932SOL    HW243238   5.561   0.321   2.811  0.7580  0.1693 -0.3869
13933SOL     OW43239   6.441   7.729   3.012 -0.4870  0.8048 -0.3303
13933SOL    HW143240   6.418   7.651   3.062  1.5038  0.4037  0.0380
13933SOL    HW243241   6.358   7.778   3.005 -1.3888 -0.4338  1.0163
13934SOL     OW43242   5.967   1.170  12.303  0.9381 -0.0309  0.3103
13934SOL    HW143243   6.035   1.103  12.313  1.1708  0.0572 -0.5828
13934SOL    HW243244   6.012   1.244  12.260  0.5223  0.4265  0.6501
13935SOL     OW43245   7.874   2.451   7.016 -0.4316  0.3939 -0.0780
13935SOL    HW143246   7.806   2.384   7.020  0.6860 -0.7199  1.1934
13935SOL    HW243247   7.883   2.482   7.106 -0.8952  2.2809 -0.6201
13936SOL     OW43248   1.155   3.997   0.250 -0.1747 -0.0448  0.1640
13936SOL    HW143249   1.167   4.081   0.294  1.9761 -0.0544 -0.3078
13936SOL    HW243250   1.076   3.961   0.290  0.7875  0.6306  2.9057
13937SOL     OW43251   0.882   3.455   5.290  0.3931  0.0712 -0.2454
13937SOL    HW143252   0.842   3.372   5.314 -0.1572  0.0467 -1.2155
13937SOL    HW243253   0.960   3.430   5.239  1.0714  0.1402  0.7192
13938SOL     OW43254   1.137   4.820   1.946  0.1331 -0.0348 -0.3283
13938SOL    HW143255   1.048   4.855   1.949  0.3248  1.1139 -3.6617
13938SOL    HW243256   1.189   4.882   1.997 -0.7885 -0.0891  0.7072
13939SOL     OW43257   7.597   2.013   5.426 -0.2391  0.0486 -0.3160
13939SOL    HW143258   7.583   1.934   5.373  0.0870  0.4573 -1.0174
13939SOL    HW243259   7.660   1.986   5.493 -2.5157 -1.1858  1.4773
13940SOL     OW43260   2.466   6.772   8.157  0.3691  0.3597  0.1750
13940SOL    HW143261   2.429   6.750   8.072  1.2250 -1.2631  0.1964
13940SOL    HW243262   2.461   6.868   8.161 -1.7716  0.3450 -0.7204
13941SOL     OW43263   6.038   0.364   6.853 -0.3991  0.1277  0.2462
13941SOL    HW143264   6.110   0.415   6.817 -2.0722  1.9024 -0.7990
13941SOL    HW243265   6.044   0.279   6.809  2.2715 -0.5928  1.8040
13942SOL     OW43266   0.561   0.468   3.463  0.3934  0.1552 -0.3166
13942SOL    HW143267   0.481   0.520   3.465  2.0118  3.0786 -2.1995
13942SOL    HW243268   0.545   0.401   3.397 -0.2540  1.3104 -1.3817
13943SOL     OW43269   7.588   4.545   6.933  0.3508  0.1449 -0.3759
13943SOL    HW143270   7.638   4.480   6.884 -0.6438 -0.9277 -0.0209
13943SOL    HW243271   7.532   4.493   6.991  1.7153  1.3432  2.1597
13944SOL     OW43272   6.435   0.713  11.991  0.1212  0.2247 -0.2920
13944SOL    HW143273   6.506   0.687  12.050  0.8694  2.7903  0.0833
13944SOL    HW243274   6.357   0.674  12.028  0.6980  1.0340  1.9609
13945SOL     OW43275   4.217   7.876   3.779  0.8351 -1.3116  0.4639
13945SOL    HW143276   4.272   7.889   3.701  1.2046 -0.7742  0.8036
13945SOL    HW243277   4.164   7.799   3.759  0.8268 -1.0953 -0.3781
13946SOL     OW43278   2.743   7.328   2.434  0.2724  0.1062 -0.1374
13946SOL    HW143279   2.813   7.264   2.430 -0.4425 -0.6466 -2.9929
13946SOL    HW243280   2.779   7.407   2.394 -0.4024 -0.2399 -1.4905
13947SOL     OW43281   2.005   5.580   0.924  0.1769  0.3187 -0.1760
13947SOL    HW143282   2.014   5.490   0.956  2.6892  0.3052 -0.7057
13947SOL    HW243283   2.095   5.608   0.906 -0.6676  2.4179 -1.4912
13948SOL     OW43284   4.076   5.978   9.500 -0.7839 -0.2352  0.1024
13948SOL    HW143285   4.077   6.059   9.450  2.1111  0.4510  1.0446
13948SOL    HW243286   4.072   5.909   9.433 -2.8570  0.6064 -0.7281
13949SOL     OW43287   0.344   6.999  11.544  0.3375 -0.1635 -0.3688
13949SOL    HW143288   0.291   7.007  11.465  0.0866 -0.3240 -0.2180
13949SOL    HW243289   0.339   7.085  11.586  0.5816 -0.0378 -0.5960
13950SOL     OW43290   4.532   0.514  10.999  0.2631 -1.1826  0.1777
13950SOL    HW143291   4.443   0.541  11.018  0.7555 -0.4867  1.6877
13950SOL    HW243292   4.576   0.593  10.968  0.6324 -1.2337  0.5481
13951SOL     OW43293   0.589   3.215   5.261  0.4796 -0.0516  0.2622
13951SOL    HW143294   0.548   3.266   5.192  0.8553  0.1217  0.1651
13951SOL    HW243295   0.515   3.177   5.310  0.2130 -0.7681 -0.6608
13952SOL     OW43296   3.679   2.549  10.844  0.1910  0.0365 -0.1009
13952SOL    HW143297   3.646   2.569  10.756 -0.3386 -1.3454 -0.2505
13952SOL    HW243298   3.693   2.634  10.885 -1.9285  0.7209 -0.6562
13953SOL     OW43299   7.825   7.773   1.029  0.4110 -0.2753  0.2422
13953SOL    HW143300   7.918   7.748   1.030  0.6964  0.7106 -0.2801
13953SOL    HW243301   7.794   7.753   1.118  1.0849 -0.7412  0.3810
13954SOL     OW43302   7.368   7.099   9.669  0.1252  0.4296 -0.3185
13954SOL    HW143303   7.368   7.178   9.616  1.6492  0.4333 -0.3658
13954SOL    HW243304   7.329   7.126   9.752  0.1876  1.1044 -0.5006
13955SOL     OW43305   3.950   7.897   5.922 -0.1893  0.2465  0.0014
13955SOL    HW143306   3.955   7.810   5.961  1.2108  0.6309  0.7573
13955SOL    HW243307   4.022   7.945   5.962 -0.5120  1.5508 -0.9176
13956SOL     OW43308   3.666   3.158   5.696 -0.4540  0.3716  0.5878
13956SOL    HW143309   3.654   3.241   5.743  0.9864  1.9143 -1.5792
13956SOL    HW243310   3.696   3.184   5.609 -1.9371 -2.3744 -0.8881
13957SOL     OW43311   5.883   4.452   7.403  0.1638  0.0668  0.0223
13957SOL    HW143312   5.864   4.359   7.398  0.2725 -0.1081  1.9723
13957SOL    HW243313   5.847   4.480   7.487  0.9364  1.5795 -0.1020
13958SOL     OW43314   3.451   5.373   4.042  0.2749  0.3512  0.6248
13958SOL    HW143315   3.510   5.425   3.987  0.4369 -1.3389 -0.8951
13958SOL    HW243316   3.509   5.312   4.088 -0.1817 -0.8927 -0.3944
13959SOL     OW43317   5.553   6.402   3.267  0.7517  0.8964 -0.1497
13959SOL    HW143318   5.502   6.432   3.191  0.7648  0.1080 -0.4764
13959SOL    HW243319   5.584   6.315   3.243 -0.3753  0.0436  1.2843
13960SOL     OW43320   1.967   7.908   2.523 -0.2286 -0.4822  0.1457
13960SOL    HW143321   2.053   7.874   2.498  0.2535  1.7102 -1.5321
13960SOL    HW243322   1.947   7.864   2.605  2.4060 -1.2177  0.5020
13961SOL     OW43323   5.476   5.485   7.917  0.0715  0.0017 -0.1209
13961SOL    HW143324   5.502   5.577   7.911 -2.4286  0.9259  1.4728
13961SOL    HW243325   5.463   5.469   8.010  1.3334 -2.3005 -0.2654
13962SOL     OW43326   7.288   1.987   2.810  0.6161  0.1487  0.4029
13962SOL    HW143327   7.305   1.936   2.889 -1.7094 -1.5806 -0.1042
13962SOL    HW243328   7.285   1.922   2.740  3.2345  1.6999 -1.3055
13963SOL     OW43329   2.292   4.005  11.582  0.4104  0.3484  0.0060
13963SOL    HW143330   2.306   3.984  11.674  2.2083  0.0547 -0.2978
13963SOL    HW243331   2.372   3.976  11.538  0.3185  2.0013 -1.3885
13964SOL     OW43332   6.258   3.972   1.441  0.0469  0.2514  0.3993
13964SOL    HW143333   6.209   4.014   1.512  0.9973  1.6970  0.2390
13964SOL    HW243334   6.194   3.917   1.397 -1.3539  1.7788  0.4393
13965SOL     OW43335   7.825   3.736   8.237  0.0972 -0.8905  0.1961
13965SOL    HW143336   7.744   3.686   8.244  0.2515 -1.1719 -0.0148
13965SOL    HW243337   7.826   3.790   8.316  0.1682 -1.5816  0.6717
13966SOL     OW43338   4.905   1.037   3.939  0.4284  0.4983 -0.4160
13966SOL    HW143339   4.899   1.121   3.984  0.2001 -1.1508  2.9467
13966SOL    HW243340   4.971   0.988   3.989  1.1492 -1.0838 -2.7584
13967SOL     OW43341   7.285   2.952   9.764 -0.1250  0.0470 -0.4995
13967SOL    HW143342   7.210   2.898   9.789 -0.2039 -0.1580 -1.1505
13967SOL    HW243343   7.350   2.936   9.833 -0.0447 -1.1083 -0.8088
13968SOL     OW43344   2.930   2.701  10.130 -0.2945 -0.7347 -0.0460
13968SOL    HW143345   2.923   2.617  10.086  2.4201 -0.2768 -1.6397
13968SOL    HW243346   2.934   2.765  10.059  1.4101  0.3240  0.9049
13969SOL     OW43347   2.139   0.571   4.961 -0.0748  0.4886  0.1012
13969SOL    HW143348   2.168   0.650   4.916  0.6169 -0.4788 -1.2174
13969SOL    HW243349   2.205   0.557   5.029  0.3854  0.4613 -0.3497
13970SOL     OW43350   5.010   6.785   7.101  0.4658  0.3129  0.6768
13970SOL    HW143351   4.985   6.732   7.176  1.3006  0.8829  1.3877
13970SOL    HW243352   5.068   6.729   7.049  0.8045  0.2931  1.0718
13971SOL     OW43353   4.211   7.595   9.492 -0.0757  0.0495 -0.2260
13971SOL    HW143354   4.137   7.550   9.531  0.4362 -0.1339  0.5751
13971SOL    HW243355   4.210   7.682   9.533 -0.4997  0.4523 -1.0557
13972SOL     OW43356   4.392   2.107   9.988  0.1359  0.0551  0.0832
13972SOL    HW143357   4.370   2.094  10.080  1.0910 -0.5411  0.2482
13972SOL    HW243358   4.354   2.192   9.965 -1.4656 -0.5002  0.5714
13973SOL     OW43359   1.734   0.782   4.091 -0.0735 -0.3496 -0.2238
13973SOL    HW143360   1.802   0.715   4.094  2.1669  1.8639  1.8800
13973SOL    HW243361   1.712   0.798   4.182 -1.2717  1.1038 -0.7309
13974SOL     OW43362   7.939   2.967   8.696 -0.2969  0.0955  0.7562
13974SOL    HW143363   7.928   3.048   8.647 -0.1646 -0.3377 -0.0150
13974SOL    HW243364   7.954   2.900   8.629 -1.3885 -0.7427  1.2983
13975SOL     OW43365   4.827   2.925   4.455 -0.0670  0.2936 -0.6589
13975SOL    HW143366   4.824   2.830   4.454  0.4186  0.2697 -2.2236
13975SOL    HW243367   4.744   2.952   4.495 -0.3493 -0.7690 -0.5110
13976SOL     OW43368   3.634   4.454   4.084  0.1152 -1.3177  0.5193
13976SOL    HW143369   3.624   4.440   4.178  0.1135  0.2924  0.7903
13976SOL    HW243370   3.713   4.507   4.076 -0.3500 -0.7315 -0.3170
13977SOL     OW43371   5.391   0.325   0.697 -0.3237  0.2470  0.2518
13977SOL    HW143372   5.458   0.324   0.629  0.0939 -0.5328  0.6713
13977SOL    HW243373   5.395   0.239   0.737  0.2626  1.0874  2.0890
13978SOL     OW43374   2.188   5.524   7.231 -0.0558 -0.1113 -0.0858
13978SOL    HW143375   2.154   5.511   7.320  0.5946 -0.6895  0.0798
13978SOL    HW243376   2.225   5.439   7.206  0.7885  0.3589 -0.4697
13979SOL     OW43377   4.400   5.604   6.508 -0.0860  0.1105 -0.0179
13979SOL    HW143378   4.340   5.543   6.464  0.1699 -1.3173  1.5129
13979SOL    HW243379   4.485   5.587   6.467  0.1880 -1.3444  1.0737
13980SOL     OW43380   3.542   1.873  11.647  0.1904  0.4287  0.5764
13980SOL    HW143381   3.634   1.865  11.673  0.1687  1.6240  1.1392
13980SOL    HW243382   3.504   1.929  11.715 -1.2467 -0.9902  0.9931
13981SOL     OW43383   4.010   3.420   4.280  0.5378 -0.5712 -0.4433
13981SOL    HW143384   3.957   3.500   4.280  1.1155 -0.1506  1.2445
13981SOL    HW243385   4.099   3.450   4.296  0.8539 -1.5147 -0.3808
13982SOL     OW43386   0.808   4.822   9.815 -0.2978 -0.8997 -1.0409
13982SOL    HW143387   0.842   4.866   9.737 -2.1080 -0.7804 -1.8134
13982SOL    HW243388   0.795   4.893   9.879 -0.2323 -0.7678 -1.1729
13983SOL     OW43389   3.290   2.766   6.660  0.4050  0.4641 -0.7098
13983SOL    HW143390   3.348   2.720   6.721  0.4482 -0.6720 -1.5662
13983SOL    HW243391   3.218   2.705   6.645 -0.0854  1.1193 -1.0550
13984SOL     OW43392   1.633   4.630   8.139  0.3877  0.5222 -0.1135
13984SOL    HW143393   1.613   4.707   8.192  0.5787  0.6706 -0.2544
13984SOL    HW243394   1.566   4.629   8.070  0.2591  0.4420  0.0128
13985SOL     OW43395   6.274   4.881   1.487  0.6470 -0.3995 -0.3190
13985SOL    HW143396   6.289   4.902   1.395 -0.2679  0.6420 -0.2512
13985SOL    HW243397   6.234   4.960   1.523 -0.8348 -1.4944  0.5127
13986SOL     OW43398   6.523   6.758   2.850 -0.2451 -0.5830  0.2432
13986SOL    HW143399   6.551   6.720   2.933 -0.6622 -0.2078  0.5618
13986SOL    HW243400   6.520   6.684   2.789 -0.9090 -1.0436  0.8148
13987SOL     OW43401   3.563   4.085   3.839  0.1735  0.2705  0.6392
13987SOL    HW143402   3.569   4.178   3.816 -2.7105  0.6893  1.1987
13987SOL    HW243403   3.470   4.071   3.858  0.5751 -2.6836  0.8662
13988SOL     OW43404   1.497   1.735   0.489 -0.0576 -0.9055 -0.6417
13988SOL    HW143405   1.499   1.822   0.529  0.6749 -0.4780 -1.5786
13988SOL    HW243406   1.405   1.720   0.468 -0.2291 -0.4909 -0.1963
13989SOL     OW43407   7.584   6.037   0.676 -0.2557 -0.5454  0.1548
13989SOL    HW143408   7.649   5.972   0.705 -0.8740 -1.4588 -0.4243
13989SOL    HW243409   7.605   6.116   0.725  0.9952 -0.9615  0.3339
13990SOL     OW43410   2.984   3.482   5.274  0.1246 -0.0755 -0.0128
13990SOL    HW143411   2.925   3.456   5.345  1.1542  0.7604  1.2094
13990SOL    HW243412   3.067   3.437   5.295  0.6421  0.7322 -0.2928
13991SOL     OW43413   2.771   7.817  10.718  0.6676  0.1569  0.0452
13991SOL    HW143414   2.863   7.821  10.692  1.0824 -0.5860  1.3358
13991SOL    HW243415   2.746   7.726  10.704  0.7404 -0.1297  1.6195
13992SOL     OW43416   4.214   1.874   8.814  0.7127 -0.2437  0.0911
13992SOL    HW143417   4.224   1.883   8.909  2.5593 -2.7098  0.2369
13992SOL    HW243418   4.150   1.803   8.804  1.8900 -1.2740 -0.4166
13993SOL     OW43419   0.985   3.058   9.411 -0.3909  0.2605 -0.5277
13993SOL    HW143420   0.944   3.136   9.374 -0.4513 -0.0713 -1.1667
13993SOL    HW243421   1.060   3.040   9.354 -0.7072 -0.4727 -0.7225
13994SOL     OW43422   4.453   2.956   5.750  0.4299 -0.0861  0.0037
13994SOL    HW143423   4.414   2.904   5.680  2.3879 -0.1951 -1.0755
13994SOL    HW243424   4.393   3.031   5.760 -1.5459 -1.6383  0.4628
13995SOL     OW43425   6.166   1.073   4.051 -0.2696  0.6404  0.2977
13995SOL    HW143426   6.243   1.093   3.999 -0.7416 -1.7536 -1.4896
13995SOL    HW243427   6.200   1.035   4.132  0.4525 -0.0554 -0.3171
13996SOL     OW43428   4.122   1.209  10.624  0.1993  0.4209  0.2446
13996SOL    HW143429   4.166   1.136  10.580  1.5415  1.1230  0.3498
13996SOL    HW243430   4.094   1.173  10.708 -0.9451 -0.4922 -0.5051
13997SOL     OW43431   6.031   4.206  11.101  0.0066 -0.4106 -0.1252
13997SOL    HW143432   5.967   4.276  11.089 -0.0663 -0.2980  0.8345
13997SOL    HW243433   5.979   4.129  11.123  0.1758 -0.3703  0.4410
13998SOL     OW43434   4.856   2.301   0.922  0.2438 -0.2734 -0.6717
13998SOL    HW143435   4.871   2.233   0.987  0.1487  0.4984  0.1779
13998SOL    HW243436   4.786   2.355   0.959 -2.5338 -1.8949 -3.0400
13999SOL     OW43437   2.284   3.211   8.531 -0.0431 -0.1673  0.1929
13999SOL    HW143438   2.255   3.277   8.594  0.0114 -0.6681  0.7473
13999SOL    HW243439   2.356   3.166   8.574 -0.4331 -0.9492  0.0486
14000SOL     OW43440   0.732   1.635  10.893  0.0134  0.0411  0.2594
14000SOL    HW143441   0.746   1.658  10.985  0.7485  0.7387 -0.0171
14000SOL    HW243442   0.820   1.628  10.856 -0.2700 -0.4704 -0.3427
14001SOL     OW43443   5.560   3.995  10.856 -0.2225  0.3039  0.0606
14001SOL    HW143444   5.495   4.060  10.830  1.6560  2.4475  0.3391
14001SOL    HW243445   5.590   3.956  10.774  1.4382  2.7302 -0.5762
14002SOL     OW43446   6.657   3.896  10.633  0.3205  0.0878 -0.7346
14002SOL    HW143447   6.640   3.936  10.548  0.9672  0.5569 -0.6539
14002SOL    HW243448   6.580   3.842  10.651 -0.5550  1.2398 -0.8781
14003SOL     OW43449   2.523   3.847   1.771  0.2507  0.4063 -0.2161
14003SOL    HW143450   2.494   3.845   1.680  0.6996  0.9751 -0.3830
14003SOL    HW243451   2.517   3.757   1.800  1.4913 -0.0516 -1.2753
14004SOL     OW43452   7.534   5.801   5.866 -0.4992  0.2988 -0.0416
14004SOL    HW143453   7.605   5.739   5.883 -1.4071 -0.7884 -0.1211
14004SOL    HW243454   7.577   5.874   5.823  0.3068 -1.2932 -2.1424
14005SOL     OW43455   6.768   7.142   9.665 -0.4900 -0.0771 -0.1029
14005SOL    HW143456   6.697   7.079   9.671  1.2439 -2.1292 -0.2006
14005SOL    HW243457   6.796   7.139   9.574  0.1283  0.2567  0.0685
14006SOL     OW43458   4.263   1.835   2.282 -0.3179  0.3756  0.3352
14006SOL    HW143459   4.170   1.838   2.260 -0.2960 -1.4950 -0.1852
14006SOL    HW243460   4.271   1.763   2.344  0.8957 -0.0895 -0.3248
14007SOL     OW43461   7.651   1.206   0.558  0.3763  0.2263 -0.1960
14007SOL    HW143462   7.700   1.132   0.593  0.2863  0.0335 -0.4811
14007SOL    HW243463   7.688   1.221   0.471 -0.3297 -0.1696 -0.5729
14008SOL     OW43464   7.710   0.085   5.632 -0.1069  0.3600  0.0404
14008SOL    HW143465   7.692   0.105   5.724  0.3194 -0.6286  0.3518
14008SOL    HW243466   7.794   0.039   5.634 -1.7206 -2.9192 -0.3982
14009SOL     OW43467   1.927   3.563   2.654 -0.2914 -0.3868 -0.2046
14009SOL    HW143468   2.002   3.522   2.696 -0.2578  0.2234  0.3463
14009SOL    HW243469   1.958   3.649   2.627 -0.6622 -0.3060 -0.3894
14010SOL     OW43470   6.828   3.968   4.107  0.8540  0.2042  0.1963
14010SOL    HW143471   6.831   4.050   4.057  0.4759 -0.8278 -1.6269
14010SOL    HW243472   6.792   3.904   4.045 -0.2906 -1.0271  2.0346
14011SOL     OW43473   6.362   4.266   6.198 -0.4303  0.5559 -0.5852
14011SOL    HW143474   6.401   4.313   6.271  1.3538  0.6992 -1.5820
14011SOL    HW243475   6.273   4.247   6.227 -0.2356  1.8742  1.0335
14012SOL     OW43476   1.433   2.609   6.866 -0.2147 -0.1478 -0.3430
14012SOL    HW143477   1.506   2.648   6.914 -0.2284 -0.9961  0.4039
14012SOL    HW243478   1.416   2.670   6.794  2.0462 -0.5475 -1.2912
14013SOL     OW43479   1.839   3.450   7.391  0.3129  0.8364  0.3049
14013SOL    HW143480   1.783   3.522   7.421 -1.3946  0.0581 -0.8183
14013SOL    HW243481   1.909   3.446   7.456 -1.0229  1.7762  1.9030
14014SOL     OW43482   3.288   3.988  12.138  0.0178  0.4174 -0.0804
14014SOL    HW143483   3.270   4.058  12.201  0.8480  1.2483 -0.7239
14014SOL    HW243484   3.350   3.931  12.182 -0.6248  0.1097  0.4335
14015SOL     OW43485   1.480   1.560   0.145 -0.4014 -0.0267 -0.1424
14015SOL    HW143486   1.451   1.591   0.059 -0.2160 -0.6444 -0.4358
14015SOL    HW243487   1.575   1.574   0.145 -0.6503  2.0036  0.8210
14016SOL     OW43488   1.036   4.403   8.931  0.0464  0.2409  0.0636
14016SOL    HW143489   1.071   4.482   8.890  0.0808  0.4474  0.4896
14016SOL    HW243490   0.946   4.425   8.954 -0.2986 -0.1986 -0.7771
14017SOL     OW43491   7.074   3.755   3.641  0.2772 -0.2235  0.6429
14017SOL    HW143492   7.065   3.756   3.737  0.7803  4.2961  0.8788
14017SOL    HW243493   6.988   3.783   3.609  0.8227  0.7986  0.0098
14018SOL     OW43494   0.369   6.439   8.618  0.5175 -0.0682 -0.4412
14018SOL    HW143495   0.360   6.346   8.597 -0.3049  0.3331 -2.0094
14018SOL    HW243496   0.319   6.450   8.699 -1.1243 -0.6312 -1.3392
14019SOL     OW43497   1.247   0.550   1.273 -0.3029 -0.0742 -0.2256
14019SOL    HW143498   1.270   0.638   1.302  1.1656 -0.3234 -0.5714
14019SOL    HW243499   1.168   0.562   1.220  0.7833  1.2706 -1.6101
14020SOL     OW43500   7.419   5.222   5.756  0.0064  0.3405 -0.1630
14020SOL    HW143501   7.410   5.285   5.828 -1.6647 -1.3404  1.1694
14020SOL    HW243502   7.340   5.233   5.704 -0.0755 -0.3380 -0.1855
14021SOL     OW43503   2.540   6.827   5.105 -0.4647  0.1405 -0.8687
14021SOL    HW143504   2.518   6.794   5.018 -0.5050 -0.8556 -0.4875
14021SOL    HW243505   2.576   6.915   5.089  0.6972 -0.5172 -2.0012
14022SOL     OW43506   0.351   0.611  10.048  0.4034  0.1165  0.6974
14022SOL    HW143507   0.301   0.692  10.051  0.1402 -0.0454  0.7433
14022SOL    HW243508   0.305   0.556   9.986  2.4764  1.2214 -2.0377
14023SOL     OW43509   7.520   4.453   5.171  0.0764  0.8063  0.0046
14023SOL    HW143510   7.439   4.465   5.221 -0.1781  0.1205 -0.2346
14023SOL    HW243511   7.491   4.424   5.084  0.6160 -0.7402  0.3120
14024SOL     OW43512   0.276   7.630   2.321  0.0399 -0.3071 -0.5624
14024SOL    HW143513   0.354   7.608   2.372 -0.3753  1.2853  0.8141
14024SOL    HW243514   0.311   7.672   2.242  0.5995 -0.3129 -0.3249
14025SOL     OW43515   3.350   4.989   5.694 -0.0359 -0.6563  0.2728
14025SOL    HW143516   3.327   5.030   5.610  0.4972 -1.0082 -0.0532
14025SOL    HW243517   3.283   5.021   5.755  0.1775  0.4462 -0.0410
14026SOL     OW43518   3.662   0.424  10.392 -0.2388  0.1318 -0.1803
14026SOL    HW143519   3.752   0.396  10.377  0.0137 -0.0551  1.5291
14026SOL    HW243520   3.645   0.488  10.323  1.3016  0.3874 -0.3559
14027SOL     OW43521   4.075   5.068   6.760 -0.0808 -0.2916 -1.0034
14027SOL    HW143522   3.982   5.090   6.766 -0.2040 -0.9518 -0.2233
14027SOL    HW243523   4.082   4.983   6.804  1.0128  0.1027 -0.3876
14028SOL     OW43524   0.384   0.594   0.345  0.2743  0.5226  0.5063
14028SOL    HW143525   0.298   0.605   0.303  0.5116 -1.1977 -0.5305
14028SOL    HW243526   0.379   0.508   0.387  1.1464  0.8683  1.3505
14029SOL     OW43527   1.527   0.167   2.826  0.0382  0.2156 -0.0336
14029SOL    HW143528   1.606   0.221   2.823 -1.0260  1.8476  0.0788
14029SOL    HW243529   1.489   0.176   2.739 -0.8208  0.7334  0.3764
14030SOL     OW43530   5.681   1.871   7.941  0.5702 -0.0333  0.4601
14030SOL    HW143531   5.641   1.784   7.934  2.2623 -0.8926  0.8231
14030SOL    HW243532   5.741   1.876   7.866 -0.1547  1.2032 -0.0666
14031SOL     OW43533   1.628   1.852   3.470  0.0777  0.0036 -0.5344
14031SOL    HW143534   1.681   1.856   3.390 -0.1367 -1.8211 -0.8131
14031SOL    HW243535   1.540   1.832   3.439 -0.0647 -0.4373  0.1476
14032SOL     OW43536   1.803   6.921   9.546 -0.0178  0.3017  1.0623
14032SOL    HW143537   1.790   6.864   9.622 -0.4084  0.0507  0.8098
14032SOL    HW243538   1.736   6.893   9.483  1.4840 -0.7952 -0.1393
14033SOL     OW43539   1.218   1.488   0.767 -0.6364  0.0881 -0.1531
14033SOL    HW143540   1.191   1.498   0.859 -1.5041 -0.3788 -0.3459
14033SOL    HW243541   1.227   1.578   0.735  0.6064  0.2695  0.6397
14034SOL     OW43542   6.429   6.247   3.127 -0.1406  0.3835  0.2518
14034SOL    HW143543   6.409   6.154   3.140 -0.9873  0.0548 -2.6804
14034SOL    HW243544   6.343   6.287   3.110  0.4080  1.3117 -0.4087
14035SOL     OW43545   6.949   0.183   9.725  0.2910 -0.2075  0.3010
14035SOL    HW143546   6.906   0.241   9.662 -1.8256  0.1485  1.9465
14035SOL    HW243547   7.006   0.241   9.775 -0.8376  0.2756  1.0840
14036SOL     OW43548   4.362   1.963   5.334 -0.5963 -0.1331 -0.0950
14036SOL    HW143549   4.314   1.882   5.317  0.0730 -0.2626 -1.4851
14036SOL    HW243550   4.408   1.981   5.252  0.4208  0.8727  0.6711
14037SOL     OW43551   4.783   2.875   6.557  0.1295  0.1612  0.2100
14037SOL    HW143552   4.848   2.935   6.520 -0.3401  0.3078 -0.3901
14037SOL    HW243553   4.731   2.847   6.482 -0.3428 -0.1513  0.6489
14038SOL     OW43554   0.108   6.590   0.308 -0.4934 -0.1883 -0.0031
14038SOL    HW143555   0.204   6.584   0.305 -0.2852  0.1197  3.0099
14038SOL    HW243556   0.091   6.661   0.370 -2.7209  0.6788 -1.4863
14039SOL     OW43557   5.053   1.303   3.356 -0.4383 -0.1701 -0.5481
14039SOL    HW143558   5.106   1.376   3.388  1.0227 -1.4725  0.1082
14039SOL    HW243559   5.085   1.287   3.267 -1.5898  0.7244 -1.1507
14040SOL     OW43560   4.662   0.695   8.515  0.3167  0.1569 -0.2426
14040SOL    HW143561   4.606   0.641   8.572 -0.9176 -0.9720 -2.3733
14040SOL    HW243562   4.751   0.674   8.543 -0.2318  0.6343  2.0777
14041SOL     OW43563   1.858   0.084   8.103 -0.1141 -0.4849  0.1682
14041SOL    HW143564   1.833   0.148   8.036 -2.2656 -1.2923  0.1370
14041SOL    HW243565   1.835   0.126   8.186  2.1544  0.3384  0.4676
14042SOL     OW43566   0.413   5.449   9.632  0.0798 -0.2728 -0.1651
14042SOL    HW143567   0.458   5.534   9.632  2.4590 -1.4127 -1.5363
14042SOL    HW243568   0.432   5.412   9.718  0.1555  0.0359 -0.0467
14043SOL     OW43569   4.160   6.252   6.639  0.1778 -0.2488  0.4410
14043SOL    HW143570   4.116   6.173   6.607 -1.4929  1.3584 -1.4983
14043SOL    HW243571   4.252   6.238   6.617  0.0314 -1.9138  0.7410
14044SOL     OW43572   2.994   2.326   6.256  0.1105 -0.4662  0.7517
14044SOL    HW143573   3.047   2.401   6.284  0.6887 -0.7077  0.3227
14044SOL    HW243574   2.945   2.359   6.181  0.4351 -0.5364  0.5043
14045SOL     OW43575   1.855   6.503  11.481 -0.2840  0.0846  0.2512
14045SOL    HW143576   1.919   6.450  11.528 -0.9799 -1.1798 -0.1866
14045SOL    HW243577   1.908   6.569  11.436  0.9084 -1.7405 -1.1918
14046SOL     OW43578   7.967   3.434   7.454  0.2658 -0.0297  0.1177
14046SOL    HW143579   7.873   3.426   7.469  0.4783  0.5686  1.9667
14046SOL    HW243580   7.974   3.506   7.390 -0.4942  0.8610  0.9957
14047SOL     OW43581   1.796   0.901   7.132 -0.2274  0.3643  0.6539
14047SOL    HW143582   1.856   0.829   7.152 -0.1705  0.4412  0.7623
14047SOL    HW243583   1.854   0.976   7.115 -0.1965 -0.0474 -1.3082
14048SOL     OW43584   6.504   0.511   4.350 -0.3846  0.0876  0.1694
14048SOL    HW143585   6.517   0.597   4.390 -0.7916  0.3039 -0.1518
14048SOL    HW243586   6.573   0.457   4.387  1.0772  1.0363 -1.0714
14049SOL     OW43587   3.606   4.017   2.031  0.0047 -0.9914  0.1255
14049SOL    HW143588   3.678   3.954   2.040  0.0160 -0.9233  0.5725
14049SOL    HW243589   3.588   4.044   2.121  0.7246  0.4582 -0.1371
14050SOL     OW43590   7.368   5.746   3.351 -0.1830  0.5532 -0.0995
14050SOL    HW143591   7.396   5.832   3.322  0.8042 -0.7495 -3.4738
14050SOL    HW243592   7.450   5.699   3.370 -0.7087  0.3677  1.9473
14051SOL     OW43593   1.794   0.509   5.600 -0.4418 -0.1765 -0.1849
14051SOL    HW143594   1.762   0.453   5.671  0.5769  0.3848  0.7288
14051SOL    HW243595   1.722   0.509   5.536 -1.8109  0.1640  1.2993
14052SOL     OW43596   2.137   3.920   6.609 -0.2267 -0.0956 -0.6991
14052SOL    HW143597   2.055   3.925   6.560  0.2886 -1.0454 -1.6994
14052SOL    HW243598   2.204   3.911   6.542  0.4701 -1.8415  0.1695
14053SOL     OW43599   3.359   7.709   6.150  0.1171  0.0621  0.2681
14053SOL    HW143600   3.398   7.696   6.237  1.9967  1.0766 -0.3656
14053SOL    HW243601   3.287   7.646   6.147  2.9521 -3.5687  0.7463
14054SOL     OW43602   6.443   6.704   6.676 -0.3481  0.0024 -0.2220
14054SOL    HW143603   6.391   6.625   6.664 -0.7593  0.2037  0.1974
14054SOL    HW243604   6.502   6.683   6.748 -0.2291 -0.0397 -0.3330
14055SOL     OW43605   6.279   7.739  12.341  0.0298 -0.3663  0.2266
14055SOL    HW143606   6.362   7.693  12.352  1.5334  1.3259 -2.6766
14055SOL    HW243607   6.218   7.673  12.308  0.7725 -1.2374  0.5803
14056SOL     OW43608   3.661   1.249   8.153 -0.3337  0.0055  0.0054
14056SOL    HW143609   3.598   1.179   8.135 -0.0468 -0.6274  1.3133
14056SOL    HW243610   3.607   1.324   8.178 -0.6147 -0.0604 -0.4060
14057SOL     OW43611   6.921   0.903   2.688 -0.0870 -0.2828  0.9274
14057SOL    HW143612   6.845   0.891   2.631  0.2849  2.3503 -0.2664
14057SOL    HW243613   6.888   0.882   2.776 -1.5361 -1.4052  0.1533
14058SOL     OW43614   3.484   5.567  10.643 -0.2400  0.3825  0.0703
14058SOL    HW143615   3.565   5.516  10.636 -0.6953 -0.5378  1.2915
14058SOL    HW243616   3.415   5.501  10.643 -0.7856  0.8476  2.9210
14059SOL     OW43617   6.016   3.388  11.369 -0.4573  0.4799 -0.4439
14059SOL    HW143618   6.051   3.471  11.336 -0.5629  0.6585 -0.1155
14059SOL    HW243619   5.922   3.394  11.352 -0.3524  0.0354 -1.2535
14060SOL     OW43620   1.264   3.912   8.992  0.2206 -0.8267  0.6922
14060SOL    HW143621   1.258   3.996   9.038  1.8260 -0.0967 -0.3377
14060SOL    HW243622   1.357   3.903   8.971  0.1417 -3.0844  1.1242
14061SOL     OW43623   6.541   0.232   6.788 -0.4763  0.2006 -0.0148
14061SOL    HW143624   6.476   0.219   6.857  0.0720  2.7421  1.0771
14061SOL    HW243625   6.489   0.245   6.708 -1.1475 -1.2495  0.1467
14062SOL     OW43626   2.095   4.983   1.654 -0.3061 -0.1890  0.5423
14062SOL    HW143627   2.083   5.016   1.743 -1.2966 -0.9111  0.6847
14062SOL    HW243628   2.032   5.031   1.601  0.5921  0.5672  0.1278
14063SOL     OW43629   6.559   3.930   3.536 -0.1416 -0.1078 -0.1983
14063SOL    HW143630   6.623   3.861   3.554 -0.1014 -0.1822 -0.6129
14063SOL    HW243631   6.610   4.011   3.541 -0.4874  0.0386  1.8149
14064SOL     OW43632   6.943   5.389   7.551  0.0579 -0.2341 -0.2421
14064SOL    HW143633   6.866   5.379   7.607 -0.8497  2.0285 -0.9768
14064SOL    HW243634   6.947   5.307   7.501 -0.5529 -1.2793  1.3363
14065SOL     OW43635   3.408   7.370  11.500 -0.4629 -0.4569  0.0321
14065SOL    HW143636   3.348   7.420  11.556  0.3817 -1.4509  1.9006
14065SOL    HW243637   3.492   7.415  11.509 -0.4737 -0.1727 -1.1027
14066SOL     OW43638   1.971   2.285  11.808  0.2304 -0.0514 -0.0215
14066SOL    HW143639   1.898   2.344  11.787 -0.5370 -1.2947 -0.9829
14066SOL    HW243640   1.945   2.201  11.771  2.4455 -0.3894 -0.9894
14067SOL     OW43641   4.471   3.008   3.187  0.0600  0.3351 -0.0838
14067SOL    HW143642   4.394   3.039   3.140 -1.1709  0.1826  1.7335
14067SOL    HW243643   4.521   2.959   3.122 -0.3693  2.0447 -1.7842
14068SOL     OW43644   7.933   2.005  10.030 -0.3474  0.0175 -0.2374
14068SOL    HW143645   7.877   2.078  10.006  0.1425  0.8370  1.0291
14068SOL    HW243646   7.895   1.971  10.111  0.4476 -0.0132  0.1287
14069SOL     OW43647   1.598   6.438   6.127 -0.2645  0.6473 -0.3932
14069SOL    HW143648   1.611   6.398   6.041  1.2030 -1.8265  0.8338
14069SOL    HW243649   1.510   6.413   6.153 -1.1531  2.3882 -1.5893
14070SOL     OW43650   2.112   6.432   0.917  0.5864  0.1402  0.0866
14070SOL    HW143651   2.170   6.413   0.843  0.8306 -0.6086  0.4666
14070SOL    HW243652   2.089   6.347   0.953  1.7638  0.5211  1.8738
14071SOL     OW43653   1.132   1.667  10.061 -0.0937  0.1359  0.5603
14071SOL    HW143654   1.167   1.756  10.064 -0.0055  0.0873  1.0362
14071SOL    HW243655   1.097   1.658   9.972 -0.7677  0.9022  0.7308
14072SOL     OW43656   6.767   0.417   3.774 -0.0371 -0.5129 -0.2295
14072SOL    HW143657   6.707   0.414   3.849 -0.9318  0.2686 -0.8903
14072SOL    HW243658   6.794   0.508   3.768  2.0418 -1.0131  0.6487
14073SOL     OW43659   2.273   5.648  11.339 -0.1604 -0.6637  0.2218
14073SOL    HW143660   2.204   5.583  11.321  0.4981 -0.6350 -3.1494
14073SOL    HW243661   2.256   5.718  11.276  1.7539  0.3322  0.7574
14074SOL     OW43662   6.986   4.511  12.353 -0.0013 -0.1837 -0.2070
14074SOL    HW143663   7.063   4.516  12.297  0.3908  0.1405  0.3617
14074SOL    HW243664   6.951   4.600  12.355 -0.2465 -0.2778 -0.2621
14075SOL     OW43665   0.558   5.070  10.317 -0.3200 -0.2911 -0.3450
14075SOL    HW143666   0.623   5.125  10.273 -0.6185  0.5702  0.2676
14075SOL    HW243667   0.538   5.117  10.398  0.1791 -1.7992  0.7000
14076SOL     OW43668   5.073   7.175   4.988  0.0846  1.1072 -0.2793
14076SOL    HW143669   5.126   7.165   4.909 -0.7714 -1.4478 -0.6147
14076SOL    HW243670   5.008   7.241   4.966  0.9961  1.7793 -1.0360
14077SOL     OW43671   7.092   3.785   9.930  0.3289  0.2577  0.4699
14077SOL    HW143672   7.020   3.799   9.869  0.5756 -0.0236  0.1056
14077SOL    HW243673   7.170   3.786   9.874  0.6983  1.5276  0.9779
14078SOL     OW43674   6.256   5.459   4.400  1.0780  0.0052 -0.1719
14078SOL    HW143675   6.205   5.410   4.335  0.2800  1.1274 -0.3968
14078SOL    HW243676   6.281   5.393   4.465 -0.3750 -0.6176 -0.2253
14079SOL     OW43677   0.145   3.493   7.930  0.3114 -0.2067 -0.3318
14079SOL    HW143678   0.141   3.452   7.844  0.0864  0.5103 -0.6735
14079SOL    HW243679   0.054   3.494   7.961  0.3313 -0.0853 -0.2746
14080SOL     OW43680   7.875   4.738   3.964 -0.3174 -0.4453  0.4663
14080SOL    HW143681   7.934   4.777   4.029  0.7170  0.3162 -0.8903
14080SOL    HW243682   7.788   4.769   3.991  0.0067 -0.6631  1.8418
14081SOL     OW43683   7.145   6.187   8.113 -0.1747  0.2164  0.0522
14081SOL    HW143684   7.111   6.145   8.192  2.2508 -0.3525  0.8837
14081SOL    HW243685   7.067   6.218   8.066 -1.6878  0.5367  2.6209
14082SOL     OW43686   5.236   7.542  11.220  0.1120 -0.0921  0.7235
14082SOL    HW143687   5.258   7.456  11.183 -0.6858 -0.2223  0.5496
14082SOL    HW243688   5.229   7.525  11.314 -0.9210 -0.4104  0.5979
14083SOL     OW43689   5.880   0.936  11.166 -0.3298  0.1751 -0.0379
14083SOL    HW143690   5.927   0.931  11.249 -0.7865 -1.6808  0.1540
14083SOL    HW243691   5.929   0.877  11.107  0.6654  2.3052 -1.4944
14084SOL     OW43692   1.914   2.343   3.893  0.4033  0.2969 -0.3238
14084SOL    HW143693   1.973   2.315   3.823  2.5966  3.1520  0.1702
14084SOL    HW243694   1.930   2.280   3.963  1.2165 -0.2746 -0.9892
14085SOL     OW43695   0.836   4.165   0.265  0.3970  0.2781  0.0793
14085SOL    HW143696   0.893   4.175   0.189  0.9697 -0.8065  0.3614
14085SOL    HW243697   0.771   4.236   0.255  0.2793 -0.0190 -1.5630
14086SOL     OW43698   4.277   6.622   6.011  0.0625  0.3970  0.0430
14086SOL    HW143699   4.311   6.572   6.085 -3.0428 -1.4175  0.4232
14086SOL    HW243700   4.326   6.588   5.935 -0.6332 -1.9568  0.5625
14087SOL     OW43701   5.060   6.936   3.229  0.1019  0.8897 -0.3587
14087SOL    HW143702   5.016   6.854   3.208 -0.9788  1.1418  0.7663
14087SOL    HW243703   5.148   6.911   3.256 -0.2513  0.0772  0.0743
14088SOL     OW43704   5.001   2.779   1.084  0.3062  0.0009 -0.2825
14088SOL    HW143705   4.970   2.841   1.149 -0.3395 -1.6928  1.0896
14088SOL    HW243706   4.972   2.815   1.000  0.8916  2.0669  0.3305
14089SOL     OW43707   6.064   7.871   7.438  0.0465  0.2146 -0.0033
14089SOL    HW143708   6.072   7.911   7.351 -1.0911 -0.1323 -0.2906
14089SOL    HW243709   5.988   7.913   7.478 -0.0887 -0.3785  0.3914
14090SOL     OW43710   1.733   1.271   3.242  0.1410  0.1443 -0.1484
14090SOL    HW143711   1.769   1.352   3.277 -1.2263  1.0133 -0.6413
14090SOL    HW243712   1.639   1.277   3.260  0.0113 -1.3379 -0.1972
14091SOL     OW43713   4.090   1.790   6.801 -0.1499 -0.1490 -0.3103
14091SOL    HW143714   4.169   1.836   6.773 -0.6992  0.2952 -1.1721
14091SOL    HW243715   4.123   1.718   6.856  0.8866 -0.2840 -1.0725
14092SOL     OW43716   4.156   5.118   7.251  0.0180 -0.3677 -0.0511
14092SOL    HW143717   4.071   5.133   7.292 -0.5317 -0.7890 -1.0027
14092SOL    HW243718   4.139   5.125   7.157  1.1175 -0.0595 -0.2460
14093SOL     OW43719   4.429   6.112   4.164 -0.2975  0.4017 -0.3260
14093SOL    HW143720   4.447   6.019   4.150 -0.7515  0.3500 -0.5694
14093SOL    HW243721   4.449   6.153   4.079  0.6070  0.6341 -0.0082
14094SOL     OW43722   2.031   1.575   3.316 -0.1588 -0.2884  0.7614
14094SOL    HW143723   2.105   1.537   3.363  0.7780  1.4342  0.7393
14094SOL    HW243724   2.053   1.667   3.305 -0.3332 -0.5207 -2.9666
14095SOL     OW43725   0.398   6.039   9.582 -0.0613  0.4305  0.1570
14095SOL    HW143726   0.396   5.960   9.637 -0.1599  0.1031 -0.3046
14095SOL    HW243727   0.394   6.112   9.643 -1.7553  0.0668  0.5237
14096SOL     OW43728   2.567   7.663  12.352 -0.0840 -0.2438 -0.1592
14096SOL    HW143729   2.634   7.652  12.421  0.5979  0.2097 -0.7355
14096SOL    HW243730   2.617   7.683  12.273 -0.9138  0.1290 -0.5999
14097SOL     OW43731   6.530   4.260  12.370 -0.6737 -0.1951  0.0743
14097SOL    HW143732   6.465   4.302  12.427 -0.8835 -1.0992  0.5157
14097SOL    HW243733   6.563   4.186  12.421  0.1815 -0.1757 -0.4306
14098SOL     OW43734   3.604   5.258   6.049 -0.4041  0.0315 -0.1921
14098SOL    HW143735   3.527   5.208   6.073  0.2363 -0.4704  0.8756
14098SOL    HW243736   3.613   5.323   6.118 -0.5860  0.9154 -0.9827
14099SOL     OW43737   4.867   4.156   8.112 -0.6958  0.4149 -0.1582
14099SOL    HW143738   4.790   4.211   8.096 -0.6105  0.4813 -0.3453
14099SOL    HW243739   4.830   4.069   8.128 -0.7708  0.2137 -1.3100
14100SOL     OW43740   2.610   6.654   6.115  0.5043  0.6665  0.0349
14100SOL    HW143741   2.520   6.658   6.081  0.5200 -0.7140 -0.2248
14100SOL    HW243742   2.604   6.600   6.193  0.8413  2.0341  1.0313
14101SOL     OW43743   2.236   3.991   8.794 -0.3541 -0.2886  0.4993
14101SOL    HW143744   2.168   3.984   8.726 -1.5430 -1.2045  1.7390
14101SOL    HW243745   2.308   3.936   8.761 -0.1090  0.8315 -0.9126
14102SOL     OW43746   3.327   1.691   9.051 -0.3241  0.3060  0.4080
14102SOL    HW143747   3.278   1.742   9.116 -1.8288 -1.4840  0.7744
14102SOL    HW243748   3.289   1.716   8.967 -0.2245  0.6438  0.4604
14103SOL     OW43749   7.938   0.744   5.385 -0.3899 -0.2857 -0.5281
14103SOL    HW143750   7.969   0.705   5.303 -0.9357 -2.3553  0.2098
14103SOL    HW243751   7.844   0.729   5.385 -0.7153  1.5257 -0.4240
14104SOL     OW43752   2.857   1.655   7.866 -0.5264  0.1728  0.5405
14104SOL    HW143753   2.837   1.736   7.913 -1.8417  0.0914  0.1688
14104SOL    HW243754   2.888   1.684   7.780  0.3353  0.2870  0.8754
14105SOL     OW43755   0.840   3.640  12.375 -0.5100  0.1035  0.2112
14105SOL    HW143756   0.823   3.550  12.403 -1.7547  0.2835  0.0669
14105SOL    HW243757   0.865   3.685  12.456  0.3014 -0.3990  0.2553
14106SOL     OW43758   3.963   5.565   2.691 -1.0106 -0.2570  0.2019
14106SOL    HW143759   3.894   5.534   2.632 -1.4207  0.8300  0.0953
14106SOL    HW243760   3.960   5.504   2.765 -1.6533 -0.5936 -0.0943
14107SOL     OW43761   4.256   2.464   8.289  0.2394 -0.3435  0.3093
14107SOL    HW143762   4.339   2.452   8.243  0.4538  0.8916  0.3455
14107SOL    HW243763   4.261   2.404   8.364  1.1278 -0.2260  0.3525
14108SOL     OW43764   2.163   7.962  12.088  0.1616  0.1606 -0.0637
14108SOL    HW143765   2.242   7.911  12.108 -0.6924 -1.6636 -1.0556
14108SOL    HW243766   2.121   7.976  12.172  0.1245 -1.3504  0.2036
14109SOL     OW43767   5.743   3.796  11.408  0.3684  0.5925 -0.1619
14109SOL    HW143768   5.772   3.841  11.487 -1.0863  0.2250  0.6271
14109SOL    HW243769   5.729   3.866  11.344  0.8762  0.9663  0.1312
14110SOL     OW43770   0.136   1.185   6.483 -0.2984  0.6118  0.1586
14110SOL    HW143771   0.052   1.209   6.445 -0.8530  1.2196  1.6873
14110SOL    HW243772   0.119   1.178   6.577  1.0367 -0.7213  0.3326
14111SOL     OW43773   3.540   1.904   8.829 -0.0114  0.5748  0.1980
14111SOL    HW143774   3.558   1.993   8.859  0.8203  1.8692 -3.6255
14111SOL    HW243775   3.444   1.897   8.834  0.0389  0.5987  2.9592
14112SOL     OW43776   2.584   0.017   2.723 -0.1175 -0.8203 -0.4824
14112SOL    HW143777   2.539   0.035   2.641 -0.8460 -0.7688 -0.0859
14112SOL    HW243778   2.677   0.013   2.700 -0.3415 -1.1670 -1.3635
14113SOL     OW43779   3.277   0.199  10.476  0.4070 -0.0237 -0.3867
14113SOL    HW143780   3.295   0.243  10.393  0.2572 -0.3886 -0.6167
14113SOL    HW243781   3.336   0.241  10.539 -0.7209  1.4781 -0.2741
14114SOL     OW43782   1.305   0.988   7.550 -0.2520  0.8787  0.5215
14114SOL    HW143783   1.264   1.024   7.629  0.8715  1.6599  0.7744
14114SOL    HW243784   1.334   0.901   7.575  0.4220  1.2554  1.1104
14115SOL     OW43785   2.246   1.471   6.007 -0.0778  0.3973  0.1183
14115SOL    HW143786   2.156   1.452   5.978 -0.4827  1.3393  0.7142
14115SOL    HW243787   2.278   1.534   5.942  0.9276 -1.4611 -1.3083
14116SOL     OW43788   0.683   0.444   9.730 -0.3299  0.4009 -0.4319
14116SOL    HW143789   0.595   0.480   9.719 -2.2369 -3.8363 -1.0728
14116SOL    HW243790   0.709   0.417   9.641  0.5486 -0.4898  0.0695
14117SOL     OW43791   6.521   5.757   1.061  0.1218 -0.2289 -0.1588
14117SOL    HW143792   6.558   5.682   1.014  0.5804 -1.4030  1.9349
14117SOL    HW243793   6.544   5.833   1.007  1.3659 -1.3995 -1.3728
14118SOL     OW43794   0.595   2.851   8.128 -0.0542  0.0056  0.0611
14118SOL    HW143795   0.640   2.929   8.093 -0.0584 -0.2198 -0.4647
14118SOL    HW243796   0.646   2.778   8.094  0.5315 -0.2073  1.3747
14119SOL     OW43797   0.251   3.435   9.968  0.0869 -0.0952 -0.0549
14119SOL    HW143798   0.276   3.527   9.972 -0.6106  0.1558 -1.0418
14119SOL    HW243799   0.333   3.387   9.979  0.6570  0.6610 -0.8738
14120SOL     OW43800   1.418   3.477  11.484  0.3103 -0.2489  0.2666
14120SOL    HW143801   1.344   3.428  11.520 -1.6234  1.7988 -0.6487
14120SOL    HW243802   1.456   3.522  11.560  0.3440 -0.9327  0.6667
14121SOL     OW43803   6.365   3.936   9.013 -0.3316 -0.2174  0.4466
14121SOL    HW143804   6.390   3.854   8.970  0.0720 -0.4351  1.0903
14121SOL    HW243805   6.448   3.976   9.039 -0.5789 -0.1879  1.2173
14122SOL     OW43806   0.461   4.042   1.211  0.2457  0.2446 -0.2991
14122SOL    HW143807   0.444   4.110   1.276 -0.8736  0.5616 -0.9034
14122SOL    HW243808   0.385   4.044   1.153  0.6288 -0.8978 -0.8743
14123SOL     OW43809   3.657   6.193   1.863 -0.0595  0.4187 -0.0968
14123SOL    HW143810   3.718   6.204   1.936 -1.2315 -1.2700  1.2353
14123SOL    HW243811   3.613   6.110   1.881 -1.5396  0.7383 -1.9064
14124SOL     OW43812   5.316   7.677   8.430  0.4661  0.2010 -0.2996
14124SOL    HW143813   5.241   7.723   8.392  0.2445 -0.2315 -0.3835
14124SOL    HW243814   5.370   7.652   8.355  0.2213 -0.3162 -0.3024
14125SOL     OW43815   1.135   6.274   9.950 -0.7430 -0.5823  0.3391
14125SOL    HW143816   1.118   6.335   9.878  0.6014  0.1665  0.6272
14125SOL    HW243817   1.090   6.312  10.025  1.6690  1.2064  1.0134
14126SOL     OW43818   0.276   5.531   3.176 -0.4959 -0.4862 -0.1864
14126SOL    HW143819   0.365   5.497   3.169  0.3173  1.7046 -1.1332
14126SOL    HW243820   0.257   5.527   3.270  1.1957  0.3995  0.2354
14127SOL     OW43821   0.358   5.967   4.811  0.5591 -0.2489  0.4299
14127SOL    HW143822   0.371   5.882   4.853  0.5837 -0.5852 -0.2413
14127SOL    HW243823   0.403   6.029   4.868  0.4885 -0.6806  0.9603
14128SOL     OW43824   6.513   7.385   9.366 -0.2414  0.6524 -0.3422
14128SOL    HW143825   6.559   7.429   9.437 -0.5084  1.7665 -0.8217
14128SOL    HW243826   6.446   7.332   9.409  0.5226  0.1867  0.2869
14129SOL     OW43827   3.011   0.318   8.602 -0.4674  0.5421  0.1260
14129SOL    HW143828   3.031   0.244   8.659 -2.9670 -1.5236 -1.4439
14129SOL    HW243829   3.082   0.320   8.538 -0.3477 -0.5167  0.2091
14130SOL     OW43830   5.807   4.976   6.597 -0.1476 -0.3917 -0.2761
14130SOL    HW143831   5.742   4.981   6.667  0.2495  0.1978  0.0608
14130SOL    HW243832   5.833   4.884   6.594  0.2986 -0.3133  0.7946
14131SOL     OW43833   0.944   1.689   8.072 -0.1489 -0.2977  0.0388
14131SOL    HW143834   0.991   1.672   7.990 -0.8023  0.5754 -0.5326
14131SOL    HW243835   0.961   1.611   8.125  2.2238  0.1063 -0.0060
14132SOL     OW43836   3.415   3.019  12.442 -0.1222 -0.4011 -0.3041
14132SOL    HW143837   3.505   2.986  12.436 -0.2084 -0.7498  0.1919
14132SOL    HW243838   3.399   3.062  12.359  0.9947  0.9270  0.1339
14133SOL     OW43839   7.472   6.210   4.466 -0.1557  0.1591  0.7572
14133SOL    HW143840   7.492   6.242   4.378 -0.2491  0.8874  0.9904
14133SOL    HW243841   7.439   6.287   4.512  2.2776  0.4452  2.2053
14134SOL     OW43842   5.054   4.557   1.782 -0.0091 -0.0434  0.3701
14134SOL    HW143843   5.096   4.642   1.774 -0.1110  0.0911  1.2772
14134SOL    HW243844   5.096   4.503   1.714 -0.6949  1.0104 -0.9395
14135SOL     OW43845   6.341   4.599   2.809  0.5676  0.3074 -0.3597
14135SOL    HW143846   6.411   4.654   2.774  0.2819  0.7291 -0.2902
14135SOL    HW243847   6.284   4.661   2.856 -0.4417  0.1632 -1.3477
14136SOL     OW43848   0.709   6.884   1.870 -0.0316  0.5675  0.1451
14136SOL    HW143849   0.622   6.847   1.856  0.7728 -1.3787 -0.0696
14136SOL    HW243850   0.740   6.909   1.782  0.1472 -0.0032  0.0440
14137SOL     OW43851   1.936   0.034  12.290 -0.2336 -0.4239  0.2341
14137SOL    HW143852   1.913   0.124  12.266  0.3813 -0.5661 -0.9298
14137SOL    HW243853   2.005   0.045  12.356  0.6890 -0.0349 -0.7745
14138SOL     OW43854   4.888   6.103   8.081 -0.3727  0.6816 -0.3459
14138SOL    HW143855   4.874   6.029   8.022  0.7789 -1.2100  1.6023
14138SOL    HW243856   4.968   6.081   8.128 -0.8364  2.4516  1.3800
14139SOL     OW43857   5.808   4.460   0.685 -0.0918 -0.1024  0.3533
14139SOL    HW143858   5.813   4.554   0.669  0.3253  0.0430  1.2957
14139SOL    HW243859   5.764   4.425   0.607 -0.3962  0.8839  0.0684
14140SOL     OW43860   4.161   3.849   5.253  0.1916  0.1325  0.5848
14140SOL    HW143861   4.155   3.929   5.201  1.3289  1.2285  2.0348
14140SOL    HW243862   4.254   3.825   5.249  0.3413  0.3311  2.1813
14141SOL     OW43863   3.016   2.856   9.035 -0.0661 -0.3912  0.2223
14141SOL    HW143864   3.109   2.847   9.055 -0.1651  0.6915  1.2811
14141SOL    HW243865   3.013   2.910   8.957  0.1873  1.6720  1.5526
14142SOL     OW43866   4.861   6.325   0.522  0.0173 -0.2909  0.0390
14142SOL    HW143867   4.891   6.413   0.501  1.0718 -0.6057  0.1795
14142SOL    HW243868   4.801   6.303   0.451 -0.0133  0.4187 -0.1625
14143SOL     OW43869   4.241   0.103   5.524  0.2239 -0.3069 -0.1241
14143SOL    HW143870   4.293   0.126   5.601  0.4494 -0.9073 -0.0920
14143SOL    HW243871   4.166   0.055   5.560 -0.5337  0.8157 -0.1387
14144SOL     OW43872   7.123   5.098   6.055  0.3159 -0.1796  0.0931
14144SOL    HW143873   7.107   5.191   6.037  1.7673  0.0775  0.0114
14144SOL    HW243874   7.197   5.075   5.998 -1.8209 -2.1822 -2.1309
14145SOL     OW43875   4.854   4.390   4.073  0.5769 -0.0525 -0.4630
14145SOL    HW143876   4.886   4.383   4.163  1.6906 -0.3343 -0.8629
14145SOL    HW243877   4.885   4.476   4.043 -1.5099  0.9391  0.0439
14146SOL     OW43878   1.004   3.207   2.082 -0.0987  0.0695  0.1912
14146SOL    HW143879   0.965   3.295   2.086  1.5617  0.8798 -0.5435
14146SOL    HW243880   0.929   3.148   2.072 -1.1966  1.4543 -0.0935
14147SOL     OW43881   1.845   1.134   8.189  0.1748  0.3809 -0.2987
14147SOL    HW143882   1.838   1.111   8.096 -0.7337 -3.3458  0.5132
14147SOL    HW243883   1.754   1.134   8.220  0.6025 -2.1420  1.2259
14148SOL     OW43884   6.664   2.806   3.238 -0.1626  0.0582  0.0170
14148SOL    HW143885   6.573   2.821   3.213  0.2715  1.1382 -1.0407
14148SOL    HW243886   6.714   2.866   3.182  1.3149 -1.5844 -0.4865
14149SOL     OW43887   5.337   2.206   1.326  0.1214 -0.2996  0.1968
14149SOL    HW143888   5.299   2.160   1.252 -2.2382 -1.3328  1.9089
14149SOL    HW243889   5.298   2.293   1.324  0.6477 -0.0653 -0.1696
14150SOL     OW43890   2.430   7.327   7.409 -0.0230  0.1920 -0.1308
14150SOL    HW143891   2.425   7.297   7.318 -2.2284  0.8355 -0.2983
14150SOL    HW243892   2.386   7.258   7.459  0.1385  0.3847  0.2819
14151SOL     OW43893   7.031   5.288  11.703  0.3942 -0.2370  0.0510
14151SOL    HW143894   6.941   5.280  11.734 -0.6153  5.1219 -0.5102
14151SOL    HW243895   7.025   5.273  11.609  0.2641 -0.6742  0.1257
14152SOL     OW43896   4.258   0.641  10.946  0.2731  0.8228  0.3172
14152SOL    HW143897   4.193   0.627  11.015 -0.9440  0.4766 -0.8547
14152SOL    HW243898   4.216   0.704  10.886  1.5486  1.6004  0.1989
14153SOL     OW43899   5.872   0.477   8.830  0.5014 -0.5318  0.4178
14153SOL    HW143900   5.901   0.430   8.752  1.6421 -1.4904  1.3697
14153SOL    HW243901   5.953   0.511   8.868 -0.2772  2.5625 -0.3795
14154SOL     OW43902   1.341   4.446   8.355 -0.3482  0.0628  0.2986
14154SOL    HW143903   1.430   4.416   8.337  0.0819 -0.3855  2.7861
14154SOL    HW243904   1.287   4.367   8.345 -0.3618  0.1533 -0.4022
14155SOL     OW43905   0.456   7.735   1.234  0.3844  0.7810  0.0075
14155SOL    HW143906   0.502   7.681   1.170  1.3381  1.3108  0.2132
14155SOL    HW243907   0.468   7.688   1.317  0.5227  0.8943  0.0529
14156SOL     OW43908   0.428   6.790   7.826 -0.2189 -0.0187 -0.1304
14156SOL    HW143909   0.445   6.877   7.862  1.2005 -0.7529  1.1313
14156SOL    HW243910   0.352   6.758   7.874  0.8337 -0.4486  1.3403
14157SOL     OW43911   6.477   3.493   4.699 -0.4077 -0.1264  0.4880
14157SOL    HW143912   6.469   3.435   4.774 -2.7344  0.1838  0.5495
14157SOL    HW243913   6.399   3.475   4.646  1.8265 -1.3880 -2.6919
14158SOL     OW43914   5.365   2.964   7.009  0.1834 -0.4012 -0.0548
14158SOL    HW143915   5.336   2.940   7.097  0.7050 -0.3446  0.1361
14158SOL    HW243916   5.458   2.985   7.019  0.4224 -1.0826 -0.7521
14159SOL     OW43917   7.139   2.185   5.629  0.4995 -0.1427 -0.9275
14159SOL    HW143918   7.047   2.175   5.606  0.0033 -0.0924  0.8724
14159SOL    HW243919   7.187   2.145   5.556 -0.8823  0.9558 -2.4887
14160SOL     OW43920   7.848   3.176   6.228 -0.0184  0.0237  0.8313
14160SOL    HW143921   7.820   3.153   6.139 -0.7129  2.6273  0.2703
14160SOL    HW243922   7.792   3.125   6.285 -0.3784 -0.8321 -0.2467
14161SOL     OW43923   3.101   4.461   0.335 -0.1001 -0.0187  0.2628
14161SOL    HW143924   3.014   4.442   0.371 -0.7608 -0.7701 -1.5864
14161SOL    HW243925   3.083   4.517   0.259  1.2247  1.4696  0.9902
14162SOL     OW43926   3.006   7.605   4.068  0.1437  0.6382  0.6421
14162SOL    HW143927   3.094   7.582   4.040 -0.0299  0.5165  0.1749
14162SOL    HW243928   2.967   7.522   4.096 -0.1516  0.5138 -0.1037
14163SOL     OW43929   4.736   1.596  10.562 -0.0962 -0.2548  0.0345
14163SOL    HW143930   4.724   1.691  10.558 -2.2759 -0.4451  0.5673
14163SOL    HW243931   4.701   1.571  10.647 -1.0240 -1.6798 -0.7208
14164SOL     OW43932   4.023   7.607   1.505  0.5358 -0.0031 -0.0612
14164SOL    HW143933   3.980   7.616   1.420  1.5742 -2.5099 -0.9523
14164SOL    HW243934   3.974   7.665   1.563 -1.4907  0.2583 -1.9125
14165SOL     OW43935   1.067   0.320   7.092  0.5190 -0.1773 -0.1928
14165SOL    HW143936   1.039   0.254   7.030  1.9862  0.1418 -1.2513
14165SOL    HW243937   1.026   0.401   7.062  0.8459 -0.1131 -0.4681
14166SOL     OW43938   3.947   3.000   7.969 -0.0560  0.0289 -0.7686
14166SOL    HW143939   4.005   3.072   7.995 -2.4860  2.0140 -0.4282
14166SOL    HW243940   3.908   3.030   7.887 -3.5911  0.7506  1.0008
14167SOL     OW43941   5.142   1.213   5.755 -0.0948 -0.2642  0.1010
14167SOL    HW143942   5.058   1.175   5.732 -0.0376 -0.1091 -0.3897
14167SOL    HW243943   5.205   1.168   5.698  0.0619  0.0942 -0.0125
14168SOL     OW43944   6.192   5.610   1.178  0.4008 -0.3174  0.3523
14168SOL    HW143945   6.101   5.581   1.176  0.1211  0.4214  1.3016
14168SOL    HW243946   6.224   5.596   1.090 -1.0609  0.7263 -0.3906
14169SOL     OW43947   3.346   5.387   8.797  0.3420 -0.1233 -0.1204
14169SOL    HW143948   3.405   5.448   8.753 -1.0439  1.6963  0.4087
14169SOL    HW243949   3.397   5.355   8.872  0.7592  1.2523  0.2178
14170SOL     OW43950   7.876   6.854  12.060  0.0311 -0.3616 -0.4262
14170SOL    HW143951   7.819   6.786  12.023 -0.7786 -0.3453  0.7244
14170SOL    HW243952   7.822   6.896  12.127  1.6357 -0.8768  1.2755
14171SOL     OW43953   2.017   6.617   6.663 -0.1335  0.2851 -0.0657
14171SOL    HW143954   2.110   6.601   6.644 -0.4709 -0.6261 -1.0996
14171SOL    HW243955   1.970   6.565   6.597 -1.3808  0.9196  0.2859
14172SOL     OW43956   4.849   7.510   7.890  0.2244  0.0431  0.4500
14172SOL    HW143957   4.840   7.605   7.903 -1.1587 -0.2431  1.7491
14172SOL    HW243958   4.873   7.501   7.797  0.2403  1.6467  0.2742
14173SOL     OW43959   1.098   4.708  10.537 -0.3850  0.2483 -0.0444
14173SOL    HW143960   1.065   4.643  10.599  0.7454  0.9488  1.3552
14173SOL    HW243961   1.156   4.659  10.479  0.3250 -0.0514  0.8936
14174SOL     OW43962   0.628   5.673  10.346  0.6511 -0.0317 -0.0719
14174SOL    HW143963   0.579   5.598  10.378 -0.7583  0.4554 -0.9706
14174SOL    HW243964   0.572   5.711  10.278  0.9697  2.2690  0.8571
14175SOL     OW43965   2.006   0.745   3.803  0.1742  0.0589 -0.1533
14175SOL    HW143966   2.053   0.690   3.866  0.6410  0.5665 -0.0414
14175SOL    HW243967   1.981   0.823   3.854 -2.1529 -0.8317  0.2020
14176SOL     OW43968   4.192   3.220   4.589  0.1438  0.3455  0.9486
14176SOL    HW143969   4.160   3.293   4.642 -0.4235 -0.8583  2.3174
14176SOL    HW243970   4.274   3.252   4.551 -0.8792  2.2614  0.1728
14177SOL     OW43971   3.727   6.122   8.904  0.8508  0.9497 -0.1139
14177SOL    HW143972   3.714   6.175   8.826 -0.1014 -0.0777 -0.6827
14177SOL    HW243973   3.639   6.098   8.932  1.1426  1.7697  1.6339
14178SOL     OW43974   1.144   1.970  10.111 -0.0101 -0.2045 -0.3444
14178SOL    HW143975   1.117   2.045  10.164 -0.8485  0.4455 -1.6363
14178SOL    HW243976   1.239   1.967  10.121 -0.0631  0.4191  0.5078
14179SOL     OW43977   0.595   0.365  10.583 -0.5323 -0.1379  0.2415
14179SOL    HW143978   0.645   0.402  10.511  0.4800 -1.2017  0.3719
14179SOL    HW243979   0.528   0.311  10.541 -1.8104  1.4772  0.0601
14180SOL     OW43980   7.563   1.669  10.774 -0.2449 -0.2261  0.3341
14180SOL    HW143981   7.556   1.734  10.844 -0.8011  2.0615 -1.7586
14180SOL    HW243982   7.480   1.674  10.728  0.7202 -0.4492 -1.5221
14181SOL     OW43983   2.882   2.689   9.241 -0.1538 -0.5075 -0.2592
14181SOL    HW143984   2.905   2.769   9.193 -1.3141 -0.5379 -0.9119
14181SOL    HW243985   2.892   2.713   9.333  1.0949 -0.1256 -0.4779
14182SOL     OW43986   1.580   4.136   6.190 -0.2213  0.2619 -0.1131
14182SOL    HW143987   1.645   4.183   6.138  1.1693 -1.3084  0.1110
14182SOL    HW243988   1.502   4.133   6.134  0.5141  0.5422 -1.1922
14183SOL     OW43989   7.203   5.921   6.267 -0.5213 -0.3141 -0.5808
14183SOL    HW143990   7.289   5.898   6.300 -0.8213 -0.1540  0.3479
14183SOL    HW243991   7.212   6.012   6.237  0.4332 -1.2426 -3.4412
14184SOL     OW43992   1.065   3.248  12.117 -0.0472  0.1082  0.1708
14184SOL    HW143993   0.982   3.295  12.117 -0.1310  0.0460  1.9900
14184SOL    HW243994   1.107   3.275  12.199  1.0969 -0.9474 -0.0388
14185SOL     OW43995   7.709   6.910  12.285  0.4221  0.1977 -0.8090
14185SOL    HW143996   7.634   6.959  12.251  0.8836  1.3733 -0.1635
14185SOL    HW243997   7.670   6.837  12.334 -0.3135  1.0603 -0.0843
14186SOL     OW43998   3.954   5.567   1.271 -0.0731  0.0891  0.8631
14186SOL    HW143999   3.987   5.484   1.236 -1.5623  0.3199 -1.3113
14186SOL    HW244000   3.885   5.542   1.332  0.9560 -0.2721  1.9231
14187SOL     OW44001   4.191   1.891   9.077  0.0643  0.6242  0.0097
14187SOL    HW144002   4.222   1.891   9.167 -0.9637  0.2301  0.3845
14187SOL    HW244003   4.112   1.945   9.079 -0.1665  0.3224 -0.5756
14188SOL     OW44004   5.229   1.727   4.004  0.8292  0.2338  0.8982
14188SOL    HW144005   5.209   1.819   4.021  1.1685  0.4683  0.0656
14188SOL    HW244006   5.223   1.718   3.909  1.7760 -0.3694  0.8850
14189SOL     OW44007   7.137   5.150   8.866 -0.3513 -0.1169  0.2784
14189SOL    HW144008   7.145   5.243   8.846 -1.3035 -0.3009 -1.0203
14189SOL    HW244009   7.227   5.122   8.882  0.0164  0.8878  0.0617
14190SOL     OW44010   2.165   5.555   4.660  0.2983 -0.1447  0.4150
14190SOL    HW144011   2.102   5.605   4.711 -0.2846  0.3131 -0.7150
14190SOL    HW244012   2.152   5.584   4.570  1.8974 -0.2846  0.1053
14191SOL     OW44013   3.302   3.335   7.179  0.1936  0.1901  0.1118
14191SOL    HW144014   3.267   3.341   7.090 -1.1421 -1.5275  0.4676
14191SOL    HW244015   3.226   3.349   7.236  0.5729 -1.0146  0.9547
14192SOL     OW44016   4.961   3.803   6.353 -0.7703 -0.5179 -0.1567
14192SOL    HW144017   5.025   3.863   6.317 -0.7126 -0.5533 -0.1137
14192SOL    HW244018   5.012   3.725   6.377 -0.6293 -0.1202  0.9218
14193SOL     OW44019   1.221   5.870   5.570  0.2096 -0.2328  0.2845
14193SOL    HW144020   1.299   5.890   5.621 -0.2097 -1.0328  1.2707
14193SOL    HW244021   1.253   5.818   5.496  0.6261 -0.4279  0.6011
14194SOL     OW44022   6.433   3.504   8.699  0.6642  0.0039 -0.1480
14194SOL    HW144023   6.462   3.418   8.728  0.3118 -0.5579 -1.3720
14194SOL    HW244024   6.337   3.498   8.699  0.6417 -0.2364 -1.9226
14195SOL     OW44025   7.262   4.775   7.877  0.1218 -0.3422  0.0525
14195SOL    HW144026   7.175   4.776   7.836  0.8998 -0.8267 -1.6873
14195SOL    HW244027   7.249   4.821   7.960 -2.0911 -1.6039  0.4845
14196SOL     OW44028   6.805   2.865  10.978 -0.0825  0.4612 -0.4274
14196SOL    HW144029   6.725   2.815  10.961  1.2013 -1.1991 -1.9333
14196SOL    HW244030   6.805   2.935  10.914 -0.4556  0.6373 -0.2370
14197SOL     OW44031   7.522   4.998   7.481  0.5994  0.2257  0.2959
14197SOL    HW144032   7.530   5.089   7.453  0.8110  0.5726  1.4202
14197SOL    HW244033   7.517   5.003   7.577  1.0128 -0.9758  0.3984
14198SOL     OW44034   6.566   6.180  11.194  0.2055 -0.1013 -0.1280
14198SOL    HW144035   6.661   6.181  11.208  0.4256  1.0100 -1.5105
14198SOL    HW244036   6.547   6.091  11.165  0.4539 -0.9945  2.2427
14199SOL     OW44037   5.740   3.457   8.305 -0.0675  0.3311 -0.2461
14199SOL    HW144038   5.776   3.368   8.304  1.9920  1.1216 -0.7935
14199SOL    HW244039   5.816   3.514   8.319 -1.2787  2.0448 -0.3047
14200SOL     OW44040   0.202   7.337   7.334 -0.2674  0.0939 -0.0902
14200SOL    HW144041   0.251   7.303   7.409  0.8767  0.5243 -0.6244
14200SOL    HW244042   0.156   7.413   7.369 -1.0356 -0.6464  0.5534
14201SOL     OW44043   1.535   0.902  10.182  0.1051  0.3793  0.5377
14201SOL    HW144044   1.491   0.838  10.127  1.4610 -0.4116  0.3201
14201SOL    HW244045   1.466   0.964  10.207 -0.9713 -0.4437 -0.2840
14202SOL     OW44046   6.297   3.178   6.794 -0.4973 -0.5625 -0.1390
14202SOL    HW144047   6.368   3.122   6.827  1.1107  2.1516  1.3897
14202SOL    HW244048   6.226   3.168   6.857 -1.2508 -2.6439 -1.2161
14203SOL     OW44049   6.078   1.310   8.355 -0.3323 -0.3319  0.1445
14203SOL    HW144050   5.989   1.318   8.321 -0.2916 -0.6704 -0.0527
14203SOL    HW244051   6.071   1.245   8.425 -0.4548  0.5309  0.9428
14204SOL     OW44052   3.182   7.398   3.075 -0.5129 -0.1880 -0.2308
14204SOL    HW144053   3.196   7.406   3.169 -1.1716  1.2560 -0.2170
14204SOL    HW244054   3.202   7.307   3.055  0.7673 -0.2360  1.1031
14205SOL     OW44055   3.107   2.966   7.324 -0.1217 -0.0819 -0.3743
14205SOL    HW144056   3.197   2.947   7.348  0.4015  1.6236 -0.8453
14205SOL    HW244057   3.068   3.002   7.404  0.4651  1.8328 -0.9048
14206SOL     OW44058   3.719   6.472   9.857 -0.7611  0.1891 -0.1877
14206SOL    HW144059   3.767   6.439   9.934 -1.2286 -0.3286 -0.1121
14206SOL    HW244060   3.656   6.534   9.893 -0.9891 -0.0634 -0.1460
14207SOL     OW44061   0.747   5.244   0.031 -0.0163  0.5327  0.5689
14207SOL    HW144062   0.684   5.189   0.078  1.3842 -1.3464  0.3549
14207SOL    HW244063   0.827   5.192   0.028  1.9482  3.2194  1.7288
14208SOL     OW44064   6.599   5.707   3.542  0.0538 -0.1951 -0.3299
14208SOL    HW144065   6.602   5.647   3.616  2.1184 -0.2961 -0.4335
14208SOL    HW244066   6.530   5.672   3.485 -0.2278 -1.2274  0.6184
14209SOL     OW44067   0.335   5.635   0.344  0.2767  0.2097 -0.0526
14209SOL    HW144068   0.245   5.663   0.323 -0.3306 -0.7270  1.1852
14209SOL    HW244069   0.363   5.695   0.413  0.7097  0.6362 -0.5828
14210SOL     OW44070   1.399   4.578   9.784  0.6564 -0.5376  0.1148
14210SOL    HW144071   1.492   4.561   9.767  0.5806 -0.7534 -0.0945
14210SOL    HW244072   1.354   4.537   9.710  0.2687 -1.9903  1.1132
14211SOL     OW44073   2.316   4.245   7.032  0.4719 -0.5298  0.6103
14211SOL    HW144074   2.244   4.305   7.051 -0.0865 -0.8573 -0.4346
14211SOL    HW244075   2.297   4.167   7.083 -0.2149 -0.8253 -0.0844
14212SOL     OW44076   0.823   3.399  11.257 -0.0783  0.1686 -0.4187
14212SOL    HW144077   0.771   3.342  11.313  1.0014 -0.2241  0.2183
14212SOL    HW244078   0.834   3.350  11.176  1.2359 -0.7831  0.2884
14213SOL     OW44079   1.073   3.443  11.459 -0.3775  0.2921  0.7379
14213SOL    HW144080   1.061   3.454  11.364  3.1857  0.6293  0.2130
14213SOL    HW244081   1.048   3.528  11.496 -0.0421  0.7737 -0.1221
14214SOL     OW44082   5.950   4.596   6.066 -0.3429  0.2796 -0.3330
14214SOL    HW144083   5.973   4.651   6.141  1.4129  0.2975 -0.8331
14214SOL    HW244084   6.034   4.575   6.025 -1.2852  0.7382 -2.6336
14215SOL     OW44085   2.880   6.005   6.600 -0.0511  0.7957 -0.3779
14215SOL    HW144086   2.888   6.099   6.614  2.3714  0.4762  0.9812
14215SOL    HW244087   2.931   5.989   6.520  1.6219  0.4143  0.7056
14216SOL     OW44088   5.790   4.911   2.394  0.2841  0.4827  0.2839
14216SOL    HW144089   5.828   4.995   2.367 -1.1105  1.6322  1.6609
14216SOL    HW244090   5.833   4.891   2.477  1.7254 -1.0181 -0.7579
14217SOL     OW44091   0.715   7.756   8.891  0.5429  0.3314  0.0313
14217SOL    HW144092   0.678   7.728   8.974 -0.4665 -0.2784 -0.6049
14217SOL    HW244093   0.677   7.843   8.876  1.0805  0.6376  0.4149
14218SOL     OW44094   2.255   4.870   0.564 -0.7140 -0.5638  0.1150
14218SOL    HW144095   2.340   4.909   0.548 -0.4228 -1.6801 -1.2660
14218SOL    HW244096   2.207   4.936   0.614  1.0077  0.0083  1.1095
14219SOL     OW44097   5.861   1.786   2.436  0.1070 -0.3233  0.0361
14219SOL    HW144098   5.906   1.712   2.477 -1.2622 -0.6821  0.9553
14219SOL    HW244099   5.846   1.848   2.508 -0.7700 -0.1751 -0.2632
14220SOL     OW44100   7.185   6.742   9.109 -0.1604 -0.1010  0.2245
14220SOL    HW144101   7.105   6.697   9.084  0.2605 -0.8552  0.2010
14220SOL    HW244102   7.164   6.782   9.194 -0.5487 -0.3178  0.2333
14221SOL     OW44103   7.366   2.793   6.137 -0.1629 -0.2694 -0.2799
14221SOL    HW144104   7.314   2.725   6.096 -1.8284  0.0118  1.2208
14221SOL    HW244105   7.333   2.798   6.227  2.7643 -0.3411  0.9187
14222SOL     OW44106   7.254   2.139   2.287  0.2654  0.6384  0.1928
14222SOL    HW144107   7.211   2.058   2.261  1.2622 -0.1808  1.0083
14222SOL    HW244108   7.235   2.200   2.216 -0.8332 -0.1779 -0.2480
14223SOL     OW44109   3.658   2.310   3.486 -0.2246  0.3542  0.1042
14223SOL    HW144110   3.575   2.346   3.516 -0.5038  0.6203 -0.9712
14223SOL    HW244111   3.647   2.215   3.492  0.1454  0.3754  1.9358
14224SOL     OW44112   2.165   3.550   2.124 -0.0822 -0.5016  0.7969
14224SOL    HW144113   2.204   3.504   2.050 -0.2871 -1.0415  1.0232
14224SOL    HW244114   2.075   3.518   2.128 -0.5294  0.6383  0.3578
14225SOL     OW44115   5.881   7.703  12.328 -0.5473 -0.2482 -0.5148
14225SOL    HW144116   5.795   7.689  12.367 -0.1032 -1.4846  0.0754
14225SOL    HW244117   5.938   7.725  12.402 -0.2008 -0.2062 -0.7928
14226SOL     OW44118   0.326   2.938   1.251  0.6059  0.2889 -0.3192
14226SOL    HW144119   0.349   3.029   1.232 -1.4130  0.9448  0.1260
14226SOL    HW244120   0.311   2.898   1.165 -0.6926  1.0273 -0.4602
14227SOL     OW44121   7.146   0.753   4.600  0.2829  0.3032 -0.2897
14227SOL    HW144122   7.226   0.709   4.569  0.0052  0.0798 -0.6967
14227SOL    HW244123   7.146   0.837   4.555  1.2385  1.0909  1.1055
14228SOL     OW44124   6.528   5.535  10.653  0.5113 -0.3979  0.7937
14228SOL    HW144125   6.582   5.470  10.609  0.3470 -0.1799  0.2611
14228SOL    HW244126   6.476   5.575  10.583 -0.7536 -0.9947  1.3636
14229SOL     OW44127   3.581   3.682   6.305 -0.3756 -0.0527  0.5973
14229SOL    HW144128   3.561   3.686   6.211  0.8859 -0.3501  0.3002
14229SOL    HW244129   3.618   3.594   6.317  0.4388  0.3650  1.1710
14230SOL     OW44130   4.019   7.562   5.175  0.1310 -0.6069  0.2354
14230SOL    HW144131   4.059   7.533   5.257 -1.8717 -0.8469  1.1800
14230SOL    HW244132   3.969   7.640   5.198  0.4139 -0.0361 -1.0000
14231SOL     OW44133   2.672   3.163   2.930 -0.5077 -0.2030  0.0953
14231SOL    HW144134   2.726   3.176   3.008 -1.4432 -0.4866  0.8053
14231SOL    HW244135   2.691   3.074   2.902  1.1879  0.4782 -1.0953
14232SOL     OW44136   5.368   5.313   2.769 -0.1001 -0.2232  0.1198
14232SOL    HW144137   5.444   5.255   2.762 -0.7950 -1.1091 -0.1706
14232SOL    HW244138   5.405   5.398   2.794  0.9357 -0.7613  0.4540
14233SOL     OW44139   0.023   0.367  10.422  0.0290 -0.5120  0.4352
14233SOL    HW144140   0.043   0.282  10.461  0.7353 -0.4189  0.2936
14233SOL    HW244141   0.041   0.355  10.329 -0.8233 -0.4855  0.2625
14234SOL     OW44142   2.259   7.699  11.227 -0.5721  0.1080  0.3310
14234SOL    HW144143   2.175   7.671  11.189 -0.0212  0.2931 -1.0903
14234SOL    HW244144   2.296   7.619  11.264 -0.8358 -0.2141 -0.0956
14235SOL     OW44145   3.541   2.578  11.300  0.6363  0.1383  0.0483
14235SOL    HW144146   3.502   2.665  11.287  0.5913  0.2294  0.7626
14235SOL    HW244147   3.624   2.595  11.343  0.8366 -0.1481 -0.2237
14236SOL     OW44148   5.948   2.051   1.892  0.7652 -0.3263 -0.0874
14236SOL    HW144149   5.944   2.032   1.798 -1.5734  1.4797 -0.4629
14236SOL    HW244150   5.918   1.970   1.934  2.4512 -1.3710 -0.8028
14237SOL     OW44151   1.235   6.113   8.167 -0.5364 -0.3761 -0.1832
14237SOL    HW144152   1.303   6.143   8.227 -0.9479 -0.8605  0.5453
14237SOL    HW244153   1.277   6.111   8.082 -0.1963  1.2265 -0.0803
14238SOL     OW44154   5.150   5.018   3.028  0.4475  0.3355 -0.4931
14238SOL    HW144155   5.191   5.004   3.113 -3.5678 -1.4010  1.4723
14238SOL    HW244156   5.187   4.950   2.972  1.9526  0.4203  0.3423
14239SOL     OW44157   1.142   3.782   0.098  0.0464  0.1099  0.2057
14239SOL    HW144158   1.126   3.811   0.008 -1.2669  0.9913  0.6884
14239SOL    HW244159   1.162   3.862   0.147 -3.5573  0.3869  1.5434
14240SOL     OW44160   7.299   2.280   2.746  1.0125 -0.0532 -0.5220
14240SOL    HW144161   7.292   2.186   2.765 -0.5775  0.1508  0.0276
14240SOL    HW244162   7.359   2.285   2.672  1.9352 -1.4222  0.0860
14241SOL     OW44163   4.804   6.067   7.333 -0.1433 -0.1354  0.3206
14241SOL    HW144164   4.818   6.156   7.366 -1.3766  0.2781 -0.2401
14241SOL    HW244165   4.823   6.073   7.240 -1.1753 -0.2288  0.0974
14242SOL     OW44166   6.595   5.651  12.265  0.2601  0.1840 -0.5628
14242SOL    HW144167   6.543   5.583  12.222 -0.1569  1.3110 -1.9181
14242SOL    HW244168   6.674   5.606  12.295 -1.1179 -1.4155  0.8725
14243SOL     OW44169   6.608   1.430   4.726  0.4832 -0.5121 -0.3135
14243SOL    HW144170   6.556   1.503   4.760  1.4557  0.1582 -0.2134
14243SOL    HW244171   6.683   1.424   4.786  1.1430 -0.6689 -1.1325
14244SOL     OW44172   1.185   6.875   6.235  0.5066  0.2763  0.4436
14244SOL    HW144173   1.157   6.966   6.244  1.3021  0.5616  0.1860
14244SOL    HW244174   1.254   6.864   6.300  2.0536  0.5726 -1.0659
14245SOL     OW44175   5.529   1.078   0.045  0.0958  0.0780  0.0227
14245SOL    HW144176   5.608   1.132   0.044  0.6103 -0.6438  0.4299
14245SOL    HW244177   5.555   0.997   0.002 -0.6526  0.1286 -0.5401
14246SOL     OW44178   2.426   3.672  11.645  0.2143 -0.1066  0.1636
14246SOL    HW144179   2.435   3.762  11.612 -0.0213 -0.2292 -0.2468
14246SOL    HW244180   2.422   3.618  11.566  0.7738 -0.5198  0.4130
14247SOL     OW44181   4.769   1.274   3.289  0.6124  0.1155 -0.0790
14247SOL    HW144182   4.827   1.270   3.213  2.4970  0.6828  1.2494
14247SOL    HW244183   4.826   1.303   3.361 -1.0788 -0.4472  1.5673
14248SOL     OW44184   2.343   1.870   9.200  0.2152 -0.2193  0.6844
14248SOL    HW144185   2.350   1.949   9.254  0.3361  0.5651 -0.4626
14248SOL    HW244186   2.293   1.809   9.255  0.7373  0.3802  1.8744
14249SOL     OW44187   2.762   0.497   6.157 -0.7057 -0.0446  0.0590
14249SOL    HW144188   2.704   0.464   6.226 -0.5897  0.6527  0.4943
14249SOL    HW244189   2.773   0.590   6.176 -0.0443 -0.0066 -0.4552
14250SOL     OW44190   1.477   4.068   3.505 -0.5157  0.2135  0.1244
14250SOL    HW144191   1.429   4.050   3.424  0.0631 -0.0538 -0.1615
14250SOL    HW244192   1.473   3.985   3.553  0.4640 -0.0986 -0.3197
14251SOL     OW44193   4.685   3.103  10.034 -0.2784  0.4711  0.2235
14251SOL    HW144194   4.743   3.063  10.099 -1.2968  1.0094  1.4897
14251SOL    HW244195   4.638   3.029   9.996 -1.1739  0.2974  1.5942
14252SOL     OW44196   2.527   3.575   3.214  0.5229  0.6535  0.2718
14252SOL    HW144197   2.518   3.525   3.295 -0.7118  1.3282  0.5716
14252SOL    HW244198   2.609   3.623   3.224  1.3197 -0.6661  0.3207
14253SOL     OW44199   6.314   3.285   8.477  0.3638  0.5331 -0.0007
14253SOL    HW144200   6.396   3.268   8.430  1.0082 -0.8468  1.5505
14253SOL    HW244201   6.269   3.349   8.422  1.9114  0.3998 -1.5312
14254SOL     OW44202   4.412   1.387   9.502  0.3167  0.0151  0.2292
14254SOL    HW144203   4.398   1.331   9.426  2.2674  0.0536 -0.2209
14254SOL    HW244204   4.372   1.471   9.478  0.6026 -0.0819 -0.6438
14255SOL     OW44205   1.898   5.828   7.435  0.1850  0.2187 -0.1167
14255SOL    HW144206   1.868   5.774   7.508 -1.0766 -0.8612 -1.3672
14255SOL    HW244207   1.932   5.907   7.476  0.2417 -0.6781  1.6734
14256SOL     OW44208   4.217   5.781   3.513  0.1541  0.1976  0.0328
14256SOL    HW144209   4.209   5.861   3.566  2.6768  0.3366  0.3007
14256SOL    HW244210   4.207   5.710   3.576 -0.3718  0.3064  0.0798
14257SOL     OW44211   4.588   6.007   3.826 -0.3118  0.4820 -0.0748
14257SOL    HW144212   4.558   5.945   3.759  0.7792 -0.3619  0.2058
14257SOL    HW244213   4.573   5.962   3.909  1.7624 -0.0169  0.0766
14258SOL     OW44214   4.852   4.276   6.758 -0.0557  0.0041 -0.0156
14258SOL    HW144215   4.763   4.313   6.760 -0.0383  0.2373 -1.6109
14258SOL    HW244216   4.863   4.249   6.667  1.8559  0.8287 -0.0583
14259SOL     OW44217   1.845   3.759  11.039 -0.7527  0.5045 -0.0691
14259SOL    HW144218   1.934   3.724  11.049 -0.4114  1.3102 -0.2041
14259SOL    HW244219   1.849   3.812  10.960 -2.2094 -2.0053 -1.9815
14260SOL     OW44220   7.005   5.994   3.335 -0.4058 -0.5622  0.2123
14260SOL    HW144221   6.985   5.901   3.349  2.1042 -1.2448 -0.2986
14260SOL    HW244222   7.040   5.998   3.246  1.6949  0.4509  1.0379
14261SOL     OW44223   0.218   7.377  12.338  0.6100 -0.1010 -0.1762
14261SOL    HW144224   0.215   7.432  12.416  1.8519  0.4708 -0.4972
14261SOL    HW244225   0.155   7.307  12.355 -1.0891  1.4642  0.1877
14262SOL     OW44226   1.711   1.948  11.329 -0.0447  0.0133 -0.2578
14262SOL    HW144227   1.714   1.904  11.414  0.6600 -1.6597 -1.1226
14262SOL    HW244228   1.750   2.034  11.345 -0.1383 -0.1847  1.1461
14263SOL     OW44229   1.052   3.838   3.550  0.3224  0.0915  0.1271
14263SOL    HW144230   1.098   3.768   3.596  0.5242 -0.0918 -0.3543
14263SOL    HW244231   1.059   3.816   3.458 -3.4777 -1.6999  0.0930
14264SOL     OW44232   7.161   2.857   1.720  0.4654 -0.3089 -0.7507
14264SOL    HW144233   7.079   2.809   1.716 -0.2697  0.9999 -2.5136
14264SOL    HW244234   7.135   2.949   1.724  1.8495  0.0763  0.2700
14265SOL     OW44235   2.754   7.072   2.674  0.1001 -0.0555  0.6297
14265SOL    HW144236   2.802   7.059   2.756 -1.7708 -0.2603  1.7293
14265SOL    HW244237   2.795   7.011   2.613  0.5702 -0.9646  1.8198
14266SOL     OW44238   2.300   7.951   3.222 -0.0529  0.1026 -0.5159
14266SOL    HW144239   2.215   7.911   3.203  0.2488  0.0997 -1.9830
14266SOL    HW244240   2.334   7.900   3.296 -1.1632 -0.1261 -0.1404
14267SOL     OW44241   4.896   6.624   9.338  0.1531  0.1013  0.0242
14267SOL    HW144242   4.923   6.635   9.429 -2.4894 -0.6998  1.0033
14267SOL    HW244243   4.853   6.707   9.316  1.5374  0.6267 -0.8453
14268SOL     OW44244   1.396   1.352  10.527  0.0793  0.5704 -0.1837
14268SOL    HW144245   1.350   1.288  10.581  1.1331 -0.4505 -0.4448
14268SOL    HW244246   1.488   1.327  10.533  0.5100  2.0186 -0.3815
14269SOL     OW44247   5.945   4.146  10.020 -0.2710 -0.2658  0.6584
14269SOL    HW144248   5.897   4.149   9.938  1.1067  0.7158 -0.1516
14269SOL    HW244249   5.940   4.235  10.054 -1.1613 -0.7458  1.8731
14270SOL     OW44250   6.455   0.621   9.358  0.2743  0.1707  0.1077
14270SOL    HW144251   6.477   0.642   9.449 -1.3112  0.2142  0.5007
14270SOL    HW244252   6.378   0.674   9.339  0.8180  0.4670 -1.4130
14271SOL     OW44253   7.366   7.524   1.752  0.4276  0.0593 -0.1646
14271SOL    HW144254   7.396   7.441   1.789  0.6635  0.0873 -0.2897
14271SOL    HW244255   7.300   7.556   1.814 -0.5513 -0.8045 -0.7262
14272SOL     OW44256   3.798   7.707  11.434 -0.3361 -0.6225 -0.4233
14272SOL    HW144257   3.857   7.705  11.509 -2.0008 -0.1251  0.9500
14272SOL    HW244258   3.856   7.714  11.358  1.3186  1.9316  0.9655
14273SOL     OW44259   3.329   6.547   5.732  0.1180 -0.6497 -0.1442
14273SOL    HW144260   3.283   6.604   5.671 -1.9341  0.7478  2.4749
14273SOL    HW244261   3.416   6.586   5.741 -0.9851  1.7186  0.9781
14274SOL     OW44262   4.907   4.850   1.407  0.2538  0.2770  0.4173
14274SOL    HW144263   4.912   4.819   1.317 -0.0111  2.8281 -0.5579
14274SOL    HW244264   4.925   4.773   1.461 -3.2408 -2.2730 -1.6552
14275SOL     OW44265   5.526   3.494   5.089  0.2077 -0.0653  0.1001
14275SOL    HW144266   5.621   3.501   5.102  0.4117 -3.3313  1.3313
14275SOL    HW244267   5.515   3.486   4.994  1.2775 -0.5432  0.0020
14276SOL     OW44268   4.804   6.577  10.537 -0.4505 -0.7419  0.2176
14276SOL    HW144269   4.881   6.592  10.592  1.1749 -1.3151 -1.7963
14276SOL    HW244270   4.800   6.655  10.481 -1.0977 -0.9089  0.0257
14277SOL     OW44271   0.929   3.709   8.460 -0.6127 -0.2046  0.2581
14277SOL    HW144272   1.001   3.667   8.507 -0.7966 -1.1709 -0.3055
14277SOL    HW244273   0.956   3.801   8.454 -0.8328  0.0833  2.7090
14278SOL     OW44274   3.323   0.898   1.658  0.2811 -0.1085 -0.3753
14278SOL    HW144275   3.280   0.921   1.576 -0.1168  0.6102  0.0318
14278SOL    HW244276   3.259   0.843   1.704  0.5926 -0.6990 -0.6392
14279SOL     OW44277   5.489   4.560   7.992 -0.1933  0.1244  0.1450
14279SOL    HW144278   5.531   4.481   8.023 -0.6051 -0.0342  0.3014
14279SOL    HW244279   5.539   4.585   7.914 -0.6313 -0.8172 -0.4637
14280SOL     OW44280   0.146   0.797   1.145 -0.7306  0.6955 -0.1331
14280SOL    HW144281   0.152   0.872   1.205 -1.5490  2.0403 -1.6406
14280SOL    HW244282   0.235   0.784   1.114 -0.3838  0.2944  0.9825
14281SOL     OW44283   0.176   4.453   2.874  0.8542 -0.0988 -0.2802
14281SOL    HW144284   0.143   4.529   2.825 -2.5102 -0.0079  1.7617
14281SOL    HW244285   0.102   4.393   2.878  2.3581 -2.0006  1.0496
14282SOL     OW44286   4.793   0.101   9.744  0.7849 -0.4682 -0.0543
14282SOL    HW144287   4.766   0.031   9.685 -0.1669  1.0560 -1.4982
14282SOL    HW244288   4.716   0.118   9.798  0.1494  1.1211 -1.4090
14283SOL     OW44289   4.612   3.942   9.233 -0.4356 -0.3236 -0.1564
14283SOL    HW144290   4.628   4.034   9.252  1.4720 -0.5264 -0.6285
14283SOL    HW244291   4.625   3.898   9.318 -1.9278 -0.1358  0.2046
14284SOL     OW44292   4.507   4.943   0.492 -0.3304 -0.0030  0.3207
14284SOL    HW144293   4.486   5.029   0.456  0.4862  0.6779  1.4301
14284SOL    HW244294   4.595   4.952   0.529 -0.2170 -1.3198  0.4517
14285SOL     OW44295   0.844   7.017   8.907  0.3282  0.2290 -0.0494
14285SOL    HW144296   0.868   7.083   8.972  1.6174  1.5242 -1.7452
14285SOL    HW244297   0.916   6.954   8.911  0.6731  0.5847 -0.5569
14286SOL     OW44298   6.187   1.092   8.768 -0.7716  0.3095 -0.2416
14286SOL    HW144299   6.253   1.095   8.699 -1.0593  0.3580 -0.5168
14286SOL    HW244300   6.166   1.000   8.778 -0.1657  0.2275  0.3254
14287SOL     OW44301   1.868   2.318   8.699  0.1480  0.1993  0.2929
14287SOL    HW144302   1.791   2.261   8.706 -1.5347  1.9987 -2.0921
14287SOL    HW244303   1.846   2.396   8.750 -1.4555  2.4027 -3.3763
14288SOL     OW44304   3.910   1.787   8.976 -0.0348 -0.0900  0.4249
14288SOL    HW144305   3.884   1.879   8.962  0.3511 -0.3024 -1.9402
14288SOL    HW244306   3.829   1.738   8.962 -0.3979 -0.1271  2.3415
14289SOL     OW44307   2.439   1.424   3.083 -0.5873  0.2806 -0.0704
14289SOL    HW144308   2.362   1.369   3.074 -2.1898  2.1126  1.4319
14289SOL    HW244309   2.511   1.370   3.052 -1.9362 -2.8069  1.6690
14290SOL     OW44310   0.630   7.592   7.586 -0.1443  0.5586  0.0141
14290SOL    HW144311   0.590   7.576   7.671 -0.2056 -1.1858 -0.3112
14290SOL    HW244312   0.597   7.522   7.530  1.2806  0.6355 -0.9871
14291SOL     OW44313   4.935   6.353   4.972  0.3838 -0.0138 -0.0999
14291SOL    HW144314   4.905   6.342   4.882 -1.0049  0.2058  0.3032
14291SOL    HW244315   4.881   6.293   5.023 -0.9472  1.9044  0.9278
14292SOL     OW44316   2.760   5.114   5.344 -0.1702  0.1338 -0.1872
14292SOL    HW144317   2.682   5.091   5.294 -0.6733 -0.8140  0.9777
14292SOL    HW244318   2.756   5.210   5.353 -1.7062  0.0317  0.6149
14293SOL     OW44319   7.917   6.906  11.249  0.6610  0.0112 -0.2783
14293SOL    HW144320   7.838   6.876  11.204  0.5482  1.3933 -1.0435
14293SOL    HW244321   7.916   6.860  11.333 -0.1993 -1.0587 -0.8499
14294SOL     OW44322   0.112   3.186   7.423 -0.1237  0.0095  0.5505
14294SOL    HW144323   0.039   3.124   7.431 -1.5456  1.0565 -2.6978
14294SOL    HW244324   0.071   3.273   7.430  1.0578  0.6251  0.1904
14295SOL     OW44325   6.700   0.974   7.827  0.3298  0.3077  0.1833
14295SOL    HW144326   6.702   0.953   7.921  0.7249 -1.8779 -0.2801
14295SOL    HW244327   6.607   0.984   7.808  0.1620 -0.4071  0.5764
14296SOL     OW44328   0.339   7.957   2.715 -0.3206 -0.4236 -0.1246
14296SOL    HW144329   0.253   7.918   2.732  0.9342 -3.1028  0.6870
14296SOL    HW244330   0.385   7.951   2.798  1.2863 -0.8868 -0.9950
14297SOL     OW44331   2.529   1.902   5.255 -0.3169 -0.5897 -0.2032
14297SOL    HW144332   2.493   1.825   5.213 -1.2623 -0.1123 -0.2763
14297SOL    HW244333   2.582   1.867   5.327 -2.6587 -1.2609  1.2767
14298SOL     OW44334   2.028   6.861   8.457  0.1453 -0.5473 -0.3058
14298SOL    HW144335   2.119   6.848   8.430  0.4610  1.2777 -0.2250
14298SOL    HW244336   1.992   6.772   8.462  1.6566 -1.2525 -1.2025
14299SOL     OW44337   4.179   0.329   5.759  0.0202  0.5828 -0.1528
14299SOL    HW144338   4.109   0.289   5.707 -0.7635  0.8269  0.6769
14299SOL    HW244339   4.134   0.363   5.837  0.7577  2.4449 -0.4897
14300SOL     OW44340   1.143   4.814   7.443  0.0546  0.3624  0.3316
14300SOL    HW144341   1.235   4.793   7.462 -0.3618 -0.4103  1.6099
14300SOL    HW244342   1.124   4.768   7.361  0.9596  1.0066 -0.2601
14301SOL     OW44343   5.948   0.617   1.225 -0.1878  0.0971  0.2459
14301SOL    HW144344   5.949   0.704   1.265 -1.4085  1.0601 -1.6519
14301SOL    HW244345   5.862   0.581   1.247  0.1804 -0.4884  0.7346
14302SOL     OW44346   4.568   7.737  11.772  0.2163 -0.2031 -0.3516
14302SOL    HW144347   4.542   7.646  11.785 -0.1797  0.0699  0.8257
14302SOL    HW244348   4.559   7.778  11.858  0.6033  0.8994 -0.8150
14303SOL     OW44349   6.725   1.587   9.520  0.6116  0.1378  0.0439
14303SOL    HW144350   6.657   1.534   9.479  0.3741  0.6526 -0.2405
14303SOL    HW244351   6.789   1.603   9.450  0.7325  0.1429  0.1543
14304SOL     OW44352   0.770   0.808   9.161  0.5206 -0.1424  0.0090
14304SOL    HW144353   0.843   0.769   9.114 -0.0043 -0.4096 -0.6014
14304SOL    HW244354   0.779   0.902   9.146  0.5910 -0.1958 -0.2834
14305SOL     OW44355   6.490   0.898   6.748  0.2240 -0.0286  0.0823
14305SOL    HW144356   6.536   0.976   6.717  2.3210  0.2376  3.3602
14305SOL    HW244357   6.403   0.929   6.772  0.7203  1.1012  0.4809
14306SOL     OW44358   2.053   6.654   8.713  0.3196 -0.3843 -0.1716
14306SOL    HW144359   2.115   6.601   8.764  1.9310 -0.5770 -2.1727
14306SOL    HW244360   2.029   6.598   8.640  0.5649  0.9590 -1.3163
14307SOL     OW44361   0.291   1.260   3.250  0.4943 -0.0918 -0.4481
14307SOL    HW144362   0.223   1.298   3.195  0.5622  2.4557  1.0628
14307SOL    HW244363   0.243   1.216   3.321  0.4002  0.0435 -0.4268
14308SOL     OW44364   6.448   7.481  10.129 -0.0166  0.0626 -0.1804
14308SOL    HW144365   6.456   7.465  10.035  1.4048  0.5745 -0.1849
14308SOL    HW244366   6.510   7.420  10.169 -0.3386  0.1051  0.3922
14309SOL     OW44367   7.200   7.721   2.879  0.1479  0.1667 -0.0090
14309SOL    HW144368   7.239   7.789   2.824 -0.5629  1.7231  1.3163
14309SOL    HW244369   7.111   7.752   2.896  0.0350 -0.7436  1.2077
14310SOL     OW44370   7.321   0.991  10.471 -0.2002 -0.6063  0.0298
14310SOL    HW144371   7.255   1.061  10.474 -0.1385 -0.5695  0.6414
14310SOL    HW244372   7.405   1.036  10.479 -0.1055 -0.6669 -0.5955
14311SOL     OW44373   1.786   4.036   3.187 -0.1810  0.2506  0.0993
14311SOL    HW144374   1.742   3.954   3.164 -1.0801  1.3577 -2.5994
14311SOL    HW244375   1.768   4.049   3.280 -1.9676 -1.4473  0.0442
14312SOL     OW44376   7.344   0.474   6.809  0.3875 -0.1326  0.1627
14312SOL    HW144377   7.302   0.430   6.735  0.0075 -0.5450  0.6101
14312SOL    HW244378   7.332   0.568   6.792  0.8374 -0.2082 -0.5932
14313SOL     OW44379   1.911   0.497   1.590  0.1885 -0.1722 -0.3425
14313SOL    HW144380   1.891   0.552   1.666  1.4889  1.1495 -0.9227
14313SOL    HW244381   1.854   0.421   1.601 -2.7511  1.8529 -0.2031
14314SOL     OW44382   0.509   5.505   1.189 -0.3167 -0.6271  0.5070
14314SOL    HW144383   0.473   5.466   1.110 -0.4995 -1.4753  0.9959
14314SOL    HW244384   0.435   5.551   1.230 -0.1172  0.2017 -0.0322
14315SOL     OW44385   2.398   1.609   0.404 -0.0393  0.2597 -0.0065
14315SOL    HW144386   2.473   1.649   0.450 -0.5425  2.9112 -1.3361
14315SOL    HW244387   2.323   1.630   0.459 -0.0545 -1.1499  0.5712
14316SOL     OW44388   1.212   6.963  11.381  0.7826 -0.0162  0.0818
14316SOL    HW144389   1.304   6.965  11.357  0.9042 -2.4816  0.1062
14316SOL    HW244390   1.208   6.912  11.462 -0.5586  0.3540  0.2831
14317SOL     OW44391   2.643   1.119   2.631 -0.1826  0.1185  0.5228
14317SOL    HW144392   2.570   1.150   2.684 -0.6195 -1.0292  0.6365
14317SOL    HW244393   2.695   1.197   2.613 -2.1404  1.2346 -0.6864
14318SOL     OW44394   2.513   6.884   5.828  0.0155 -0.4541 -0.1868
14318SOL    HW144395   2.572   6.814   5.852  1.2613  0.6509  0.0858
14318SOL    HW244396   2.569   6.950   5.787 -0.8375  1.0691  0.9764
14319SOL     OW44397   0.729   3.754   3.579  0.5228 -0.1068  0.0756
14319SOL    HW144398   0.796   3.775   3.644  0.4933 -1.4564  0.5829
14319SOL    HW244399   0.732   3.658   3.572 -2.3404 -0.3825  1.2211
14320SOL     OW44400   4.011   2.100   9.994 -0.1790  0.2429  0.3473
14320SOL    HW144401   3.988   2.142   9.911 -0.2917 -0.5891 -0.0615
14320SOL    HW244402   4.038   2.171  10.051 -1.4264  0.9836  0.0434
14321SOL     OW44403   5.744   0.360   1.562  0.3135 -0.9732 -0.0562
14321SOL    HW144404   5.816   0.297   1.559  1.4444  0.3057 -0.5886
14321SOL    HW244405   5.744   0.401   1.475 -0.8471 -0.7071  0.0509
14322SOL     OW44406   5.360   1.663   1.583  0.4004  0.3646 -0.0205
14322SOL    HW144407   5.301   1.635   1.653  0.9597  0.3671  0.4660
14322SOL    HW244408   5.305   1.710   1.522 -0.4306 -1.1191 -0.4632
14323SOL     OW44409   7.335   2.270  12.099  0.4512 -0.4493  0.4036
14323SOL    HW144410   7.417   2.225  12.082  0.6595 -0.4153  1.2726
14323SOL    HW244411   7.330   2.337  12.030  1.0430 -0.5881  0.2198
14324SOL     OW44412   4.388   5.018   7.325 -0.8988 -0.1753 -0.2529
14324SOL    HW144413   4.309   5.062   7.295 -0.8867  0.1265  0.1505
14324SOL    HW244414   4.385   4.932   7.284 -1.3144 -0.0780 -0.4269
14325SOL     OW44415   0.909   3.948   2.162 -0.1464 -0.3793 -0.3882
14325SOL    HW144416   0.932   4.033   2.125 -2.1416  0.4535  0.1417
14325SOL    HW244417   0.911   3.961   2.257  0.4425 -1.2036 -0.2754
14326SOL     OW44418   7.024   5.083   3.501 -0.3439  0.0528 -0.3209
14326SOL    HW144419   7.006   5.172   3.471  1.8521  1.6791  2.6373
14326SOL    HW244420   7.095   5.053   3.445  0.6207  1.2148  0.2419
14327SOL     OW44421   1.757   2.709   8.256  0.1367  0.9753 -0.2008
14327SOL    HW144422   1.704   2.763   8.198  0.9165  0.2702 -1.6199
14327SOL    HW244423   1.795   2.771   8.319  0.8811  2.1019 -1.6855
14328SOL     OW44424   7.515   1.993   3.957  0.0412  0.2497  0.0211
14328SOL    HW144425   7.544   1.932   3.890 -0.2978 -1.7943  1.6261
14328SOL    HW244426   7.595   2.026   3.997  0.2267 -0.3280  0.1342
14329SOL     OW44427   5.374   2.620  10.362 -0.3200  0.0183 -0.1833
14329SOL    HW144428   5.469   2.609  10.355 -0.1142  1.7381 -0.3201
14329SOL    HW244429   5.356   2.707  10.327 -1.9976 -0.3772 -0.4120
14330SOL     OW44430   6.361   2.436   7.127 -0.1273 -0.1148  0.0788
14330SOL    HW144431   6.324   2.412   7.212  1.1069  1.0149  0.9808
14330SOL    HW244432   6.287   2.429   7.066 -0.5158 -3.3305  0.7167
14331SOL     OW44433   7.121   5.778   6.027  0.2792  0.1191  0.4381
14331SOL    HW144434   7.105   5.847   6.091 -2.0053 -0.1497  0.2146
14331SOL    HW244435   7.040   5.726   6.025  0.9756 -1.0148 -1.2864
14332SOL     OW44436   0.942   0.481  11.126  0.4063 -0.1198  0.1268
14332SOL    HW144437   1.021   0.492  11.073 -1.1526  0.1543 -2.2432
14332SOL    HW244438   0.929   0.386  11.130  1.6219 -0.2658  1.8207
14333SOL     OW44439   5.167   0.676   0.747 -0.2694  0.0889  0.1211
14333SOL    HW144440   5.097   0.652   0.807 -0.3782  1.4937  0.5905
14333SOL    HW244441   5.124   0.689   0.663 -1.0888  3.3333  0.8980
14334SOL     OW44442   1.830   4.565   6.644  0.5454  0.1193 -0.0354
14334SOL    HW144443   1.851   4.471   6.641  0.0828  0.0093  0.1682
14334SOL    HW244444   1.750   4.573   6.592 -0.3468  0.1497  1.2888
14335SOL     OW44445   2.326   0.061   5.882 -0.5054  0.5610 -0.5233
14335SOL    HW144446   2.388   0.111   5.934 -0.3553  0.3407 -0.4942
14335SOL    HW244447   2.300  -0.012   5.937 -0.9645  0.7759 -0.4467
14336SOL     OW44448   2.760   7.254   0.004 -0.1108  0.1061  0.0386
14336SOL    HW144449   2.823   7.324  -0.013  0.0756  0.4482  1.9408
14336SOL    HW244450   2.697   7.293   0.064  0.4964 -1.5854  1.8598
14337SOL     OW44451   3.853   5.154   8.825  0.2252  0.1236 -0.2713
14337SOL    HW144452   3.934   5.132   8.779  1.2409  1.4573  0.7859
14337SOL    HW244453   3.790   5.089   8.796  1.6037 -0.7845 -1.3354
14338SOL     OW44454   3.333   5.336  10.718  0.3362 -0.5431 -0.3235
14338SOL    HW144455   3.281   5.347  10.797  1.5221 -0.9355  0.5260
14338SOL    HW244456   3.407   5.281  10.744  1.8580  0.9983 -1.1751
14339SOL     OW44457   6.232   4.441   7.657  0.2794 -0.2651  0.1250
14339SOL    HW144458   6.327   4.432   7.669  0.3014 -0.5571 -0.2241
14339SOL    HW244459   6.194   4.414   7.740  0.4544 -1.3888 -0.1494
14340SOL     OW44460   5.889   3.055   3.565  0.1569 -0.0112  0.2167
14340SOL    HW144461   5.818   2.997   3.538  1.4067 -1.9730  0.9588
14340SOL    HW244462   5.968   3.015   3.528  1.4941 -0.8179  3.5953
14341SOL     OW44463   0.183   4.164   1.580 -0.1225 -0.3867 -0.5608
14341SOL    HW144464   0.269   4.182   1.542 -0.7546 -0.2862 -1.9933
14341SOL    HW244465   0.166   4.073   1.558 -1.4185  0.2567 -2.4792
14342SOL     OW44466   2.055   6.672  10.120 -0.1140  0.6784 -0.2901
14342SOL    HW144467   2.033   6.758  10.156 -2.1928 -0.4338  1.2804
14342SOL    HW244468   1.990   6.613  10.157  0.0127 -1.2608 -2.9104
14343SOL     OW44469   5.975   5.130   7.554 -0.4586 -0.3284 -0.4150
14343SOL    HW144470   6.035   5.058   7.569 -0.2325  0.1810  1.4251
14343SOL    HW244471   6.028   5.209   7.567 -0.2161  0.3103 -4.2623
14344SOL     OW44472   4.389   5.528   1.160  0.1990 -0.0707  0.0398
14344SOL    HW144473   4.447   5.600   1.136  1.4436  0.5331  4.0527
14344SOL    HW244474   4.301   5.565   1.154  0.6702  1.0641 -0.1768
14345SOL     OW44475   7.842   0.049   2.816  0.0460  0.3023 -0.4633
14345SOL    HW144476   7.783   0.076   2.886  0.9364  1.1549 -0.0210
14345SOL    HW244477   7.812   0.098   2.740 -1.5661 -1.3731 -1.0113
14346SOL     OW44478   7.932   2.472   5.102 -0.5508 -0.4266  0.0568
14346SOL    HW144479   7.900   2.509   5.020  1.5861  0.7704 -0.3043
14346SOL    HW244480   7.861   2.488   5.165 -1.1546  1.0438 -0.9369
14347SOL     OW44481   0.641   5.133   6.506  0.4886  0.8724  0.4408
14347SOL    HW144482   0.713   5.106   6.563  2.3866  1.2935 -1.6083
14347SOL    HW244483   0.569   5.073   6.528  2.4066 -1.5387  0.5655
14348SOL     OW44484   5.447   4.686  11.491  0.5949 -0.0891 -0.1205
14348SOL    HW144485   5.504   4.671  11.415  0.5175  1.7725 -0.6175
14348SOL    HW244486   5.364   4.714  11.452 -0.2235 -1.3954  0.6334
14349SOL     OW44487   7.597   4.542   9.455 -0.4473  0.2046  0.2229
14349SOL    HW144488   7.627   4.486   9.526  1.6663  1.0664  0.0914
14349SOL    HW244489   7.535   4.488   9.406  1.3918 -1.9851  0.1751
14350SOL     OW44490   6.577   7.072  11.290 -0.4590  0.6136  0.6019
14350SOL    HW144491   6.635   7.088  11.364  1.6205 -3.1257  0.0070
14350SOL    HW244492   6.580   7.154  11.239  0.0016  2.3791  3.2648
14351SOL     OW44493   5.289   1.038  11.379 -0.0553  0.2037 -0.3447
14351SOL    HW144494   5.379   1.008  11.395 -0.1778 -0.6048 -1.1465
14351SOL    HW244495   5.283   1.047  11.284 -1.4365 -1.7870 -0.5066
14352SOL     OW44496   2.946   5.729   2.926  0.3002 -0.5715  0.7002
14352SOL    HW144497   2.910   5.817   2.912 -2.0299 -1.3094  1.5929
14352SOL    HW244498   2.944   5.717   3.021  0.9815 -1.4475  0.6110
14353SOL     OW44499   5.317   5.202   9.281 -0.2743 -0.3109 -0.1919
14353SOL    HW144500   5.367   5.214   9.201  2.2416  0.6343  1.4082
14353SOL    HW244501   5.235   5.162   9.252  1.3320 -1.8889 -2.9814
14354SOL     OW44502   4.462   6.864  12.283  0.1493  0.8519  0.6684
14354SOL    HW144503   4.465   6.780  12.236  2.1303  1.3155 -0.1226
14354SOL    HW244504   4.417   6.843  12.366  0.6902 -1.0123  0.5359
14355SOL     OW44505   3.581   0.349   9.947 -0.1757  0.7322  0.9177
14355SOL    HW144506   3.674   0.363   9.926 -0.5980  2.2970 -0.0724
14355SOL    HW244507   3.535   0.418   9.898 -2.0237 -1.0106  0.0685
14356SOL     OW44508   2.664   6.211   6.212 -0.0491 -0.0572 -0.3281
14356SOL    HW144509   2.727   6.139   6.214  2.3369  1.8498 -1.3381
14356SOL    HW244510   2.706   6.281   6.263 -2.2096  0.7121  0.5118
14357SOL     OW44511   0.365   4.229   4.052 -0.1459  0.3542 -0.3219
14357SOL    HW144512   0.401   4.140   4.056 -2.0463 -0.5139 -1.3488
14357SOL    HW244513   0.442   4.286   4.062  1.2254 -1.3878 -0.3930
14358SOL     OW44514   5.753   5.743   5.253  0.4488 -0.6829 -0.0484
14358SOL    HW144515   5.772   5.649   5.243 -0.9816 -1.0671  0.6531
14358SOL    HW244516   5.660   5.751   5.234  0.4698  0.5524  0.3046
14359SOL     OW44517   1.553   1.427   6.709  0.3069  0.8033  0.0672
14359SOL    HW144518   1.467   1.414   6.670  0.4661  1.2780 -0.4596
14359SOL    HW244519   1.602   1.347   6.688  0.3183  0.9611 -0.5224
14360SOL     OW44520   7.079   0.406   3.835  0.3571  0.1776 -0.5199
14360SOL    HW144521   7.089   0.470   3.764  1.8170 -0.2030 -0.6906
14360SOL    HW244522   7.130   0.330   3.806 -0.4378 -0.6481  0.1817
14361SOL     OW44523   4.106   7.392   0.345  0.5308 -0.1386  0.0845
14361SOL    HW144524   4.139   7.310   0.380  0.8367 -0.1893 -0.3120
14361SOL    HW244525   4.116   7.384   0.250 -1.2856 -0.4348 -0.1102
14362SOL     OW44526   4.244   5.910   6.297 -0.1280 -0.2026 -0.3446
14362SOL    HW144527   4.266   5.895   6.205 -1.1922  3.2762 -1.2905
14362SOL    HW244528   4.152   5.935   6.296 -0.5260 -1.3501  1.8997
14363SOL     OW44529   4.906   4.530   0.167 -0.5009  0.0342  0.0482
14363SOL    HW144530   4.936   4.536   0.076 -1.5336 -0.5113 -0.3413
14363SOL    HW244531   4.858   4.611   0.182 -0.8849 -0.1631 -0.1056
14364SOL     OW44532   3.040   7.714   5.249  0.3874  0.2712 -0.0819
14364SOL    HW144533   3.085   7.641   5.208  0.3520 -0.4450  1.1316
14364SOL    HW244534   2.984   7.674   5.316  0.3961  1.3972  0.6301
14365SOL     OW44535   1.661   1.531   0.597  0.1595 -0.3448  0.1964
14365SOL    HW144536   1.632   1.517   0.687  0.2749  0.4194  0.3563
14365SOL    HW244537   1.591   1.584   0.557  0.8340  0.6443  0.2936
14366SOL     OW44538   5.256   2.453   7.918 -0.1317 -0.2859 -0.3727
14366SOL    HW144539   5.328   2.420   7.971  0.2166 -0.8819 -1.1925
14366SOL    HW244540   5.212   2.375   7.885 -0.0907  0.0566 -1.2836
14367SOL     OW44541   5.710   3.145   9.530 -0.2436  0.2360  0.0940
14367SOL    HW144542   5.795   3.170   9.568 -0.2170 -0.2323  0.3447
14367SOL    HW244543   5.649   3.149   9.603 -0.1838 -0.7130  0.2082
14368SOL     OW44544   3.255   5.110   3.413 -0.4629 -0.4098  0.2885
14368SOL    HW144545   3.349   5.126   3.418 -0.8073  1.4809  2.3778
14368SOL    HW244546   3.216   5.182   3.463 -3.2554  0.8706 -3.2876
14369SOL     OW44547   7.167   7.367  10.338  0.2690 -0.4578 -0.0107
14369SOL    HW144548   7.217   7.423  10.397  0.3905 -0.8292  0.2423
14369SOL    HW244549   7.170   7.281  10.378 -0.4153 -0.5279 -0.0942
14370SOL     OW44550   4.486   5.757  11.773  0.1411 -1.0924 -0.0074
14370SOL    HW144551   4.440   5.777  11.855 -1.4196 -1.3363 -0.7815
14370SOL    HW244552   4.516   5.667  11.783 -1.4007 -1.6688 -0.2589
14371SOL     OW44553   2.254   7.910   6.824  0.4899 -0.0174  0.4413
14371SOL    HW144554   2.339   7.875   6.850  0.6709 -0.7488 -1.0154
14371SOL    HW244555   2.262   7.923   6.729 -1.5900 -1.8237 -0.0583
14372SOL     OW44556   6.632   4.329  10.878 -0.1499  0.0136  0.0735
14372SOL    HW144557   6.677   4.397  10.928  0.7293  0.3513 -1.1379
14372SOL    HW244558   6.700   4.265  10.858 -1.2642 -2.1060  2.5372
14373SOL     OW44559   6.970   6.300  10.845  0.2169  0.0126  0.4869
14373SOL    HW144560   6.893   6.327  10.795  1.2305 -0.0623 -1.1679
14373SOL    HW244561   7.044   6.317  10.787  1.3894 -0.7545  1.6991
14374SOL     OW44562   4.209   1.803   1.126  0.0935  0.2122 -0.3694
14374SOL    HW144563   4.220   1.851   1.044  1.2333 -0.9052 -0.9098
14374SOL    HW244564   4.295   1.811   1.169 -0.6057  1.1367  0.9467
14375SOL     OW44565   0.080   5.247   1.779 -0.1663 -0.2222 -0.2495
14375SOL    HW144566   0.097   5.183   1.849  2.8598 -0.9303 -1.4682
14375SOL    HW244567   0.002   5.213   1.735  0.3636 -2.2047  0.2038
14376SOL     OW44568   1.310   3.680   0.735  0.3885 -0.0481  0.6299
14376SOL    HW144569   1.337   3.765   0.768  3.0536 -0.6344  0.1569
14376SOL    HW244570   1.292   3.629   0.815  1.6857  0.0874  1.0249
14377SOL     OW44571   6.980   2.854   5.577  0.6621 -0.1848  0.0008
14377SOL    HW144572   7.027   2.853   5.493  2.6917 -1.2585  1.0975
14377SOL    HW244573   7.003   2.939   5.616 -0.7920  0.5992 -0.7254
14378SOL     OW44574   4.787   1.742   2.655  0.6222 -0.3015 -0.0821
14378SOL    HW144575   4.841   1.686   2.712 -0.9491 -0.4635  1.3416
14378SOL    HW244576   4.787   1.697   2.571  0.1559 -2.0102  0.7712
14379SOL     OW44577   1.354   7.867   6.035  0.0025 -0.0371  0.5803
14379SOL    HW144578   1.442   7.832   6.047 -0.0413 -0.1006  0.7310
14379SOL    HW244579   1.326   7.835   5.949  1.3236  2.5747 -0.9346
14380SOL     OW44580   4.346   7.043  10.337  0.8310  0.2649 -0.4003
14380SOL    HW144581   4.326   7.005  10.422  1.5362 -2.3604 -1.3278
14380SOL    HW244582   4.437   7.019  10.321  0.6371  0.5119 -2.0041
14381SOL     OW44583   7.254   2.797   6.386  0.3514 -0.0698 -0.6892
14381SOL    HW144584   7.175   2.745   6.374  0.1889 -0.2078  0.7617
14381SOL    HW244585   7.223   2.881   6.418  0.8406 -0.8611  2.1142
14382SOL     OW44586   0.372   3.182   9.827  0.3498  0.9429  0.5349
14382SOL    HW144587   0.424   3.148   9.900  1.2204  0.9306 -0.0750
14382SOL    HW244588   0.282   3.169   9.854  0.6640 -0.0024  1.1806
14383SOL     OW44589   4.215   7.052   8.784 -0.3943 -0.5427  0.1144
14383SOL    HW144590   4.172   6.970   8.805 -2.4656 -0.0037 -1.6699
14383SOL    HW244591   4.144   7.112   8.762  1.1623  1.1381 -0.6334
14384SOL     OW44592   5.376   6.464  10.541  0.3025 -0.1550  0.0650
14384SOL    HW144593   5.378   6.372  10.567  0.1584 -0.1432  0.1189
14384SOL    HW244594   5.355   6.462  10.447  1.9093 -0.2444 -0.3238
14385SOL     OW44595   1.237   2.849   4.361  0.2535  0.1489 -0.4420
14385SOL    HW144596   1.214   2.799   4.440  0.8875  1.1282  0.3827
14385SOL    HW244597   1.155   2.890   4.334 -0.2187 -1.0776 -0.9741
14386SOL     OW44598   1.050   7.317   1.789 -0.3194 -0.4880  0.4829
14386SOL    HW144599   1.012   7.397   1.826 -0.0262 -0.9484  1.8293
14386SOL    HW244600   0.986   7.289   1.723 -2.2646 -1.1162  2.5291
14387SOL     OW44601   7.501   5.046   9.608 -0.0478 -0.3157 -0.0813
14387SOL    HW144602   7.407   5.062   9.609 -0.0062  0.1193 -1.5272
14387SOL    HW244603   7.540   5.133   9.603  0.3182 -0.5469 -2.6171
14388SOL     OW44604   1.953   0.628   1.302 -0.2256  0.0277  0.0463
14388SOL    HW144605   1.895   0.615   1.377  0.5995  2.3058  1.1734
14388SOL    HW244606   1.932   0.716   1.270  1.9132  0.5421 -0.0916
14389SOL     OW44607   0.626   4.546   5.128 -0.7508 -0.0397 -0.5985
14389SOL    HW144608   0.572   4.546   5.207  0.0658 -1.4527 -0.0071
14389SOL    HW244609   0.610   4.632   5.088 -1.8297  0.3686  0.6358
14390SOL     OW44610   6.998   4.200   0.859 -0.7869 -0.3368  0.1430
14390SOL    HW144611   6.970   4.168   0.773 -0.7904  0.0507 -0.0041
14390SOL    HW244612   7.087   4.232   0.845  0.3884 -2.9888  0.9639
14391SOL     OW44613   5.143   0.984  10.925 -0.1341 -0.0551  0.2849
14391SOL    HW144614   5.095   1.067  10.925  0.1350  0.1116 -0.8749
14391SOL    HW244615   5.174   0.975  11.016  0.1384  1.2949  0.3513
14392SOL     OW44616   7.508   3.010   2.073  0.3600 -0.0033 -0.1004
14392SOL    HW144617   7.552   2.990   2.156  1.0289 -1.1799 -0.7175
14392SOL    HW244618   7.474   3.099   2.086 -1.2382 -0.8563  2.1171
14393SOL     OW44619   2.358   4.676   0.277  0.3705  1.1048  0.1483
14393SOL    HW144620   2.434   4.731   0.299 -0.0465  1.6670  0.1924
14393SOL    HW244621   2.329   4.642   0.362  1.5320 -0.4006 -0.0245
14394SOL     OW44622   6.457   5.813  12.096  0.3453  0.4590 -0.4475
14394SOL    HW144623   6.400   5.879  12.136  1.4096  0.9358  0.3099
14394SOL    HW244624   6.490   5.761  12.169  1.0507  0.3281 -0.8488
14395SOL     OW44625   1.159   6.871  10.915 -0.1005  0.1145  0.1255
14395SOL    HW144626   1.247   6.835  10.917 -0.1344  0.0339  0.1720
14395SOL    HW244627   1.161   6.942  10.980 -0.1931 -0.1750  0.4468
14396SOL     OW44628   6.655   7.192   8.215 -0.3069 -0.3001 -0.0474
14396SOL    HW144629   6.703   7.110   8.205 -1.1014 -1.2547  2.8122
14396SOL    HW244630   6.628   7.216   8.126  0.0767 -3.0619 -0.9950
14397SOL     OW44631   4.875   5.388  10.554 -0.0431 -0.1763  0.0541
14397SOL    HW144632   4.828   5.326  10.609  2.2838 -0.7782  1.4890
14397SOL    HW244633   4.912   5.334  10.484 -0.6601  0.1337 -0.5182
14398SOL     OW44634   6.128   1.534   6.047  0.3152  0.5732  0.2521
14398SOL    HW144635   6.192   1.523   6.117  1.0726 -2.7041 -0.7899
14398SOL    HW244636   6.057   1.475   6.069 -0.0582  0.4966 -1.0451
14399SOL     OW44637   1.111   6.190   9.068 -0.1680  0.8266  0.4957
14399SOL    HW144638   1.068   6.105   9.069 -0.2894  0.8833  0.1881
14399SOL    HW244639   1.204   6.170   9.055 -0.4252  0.8205 -1.6913
14400SOL     OW44640   1.944   3.492  10.092  0.2341  0.9374  0.5048
14400SOL    HW144641   1.970   3.478  10.001  0.3618  0.4371  0.6204
14400SOL    HW244642   1.849   3.477  10.092  0.1832  1.2441  0.3958
14401SOL     OW44643   2.887   3.850   2.720 -0.0311  0.4727 -0.2411
14401SOL    HW144644   2.908   3.783   2.785  1.3307  0.6027 -0.5205
14401SOL    HW244645   2.952   3.839   2.651  0.1981  2.0278 -0.3219
14402SOL     OW44646   4.730   6.822   2.674 -0.0462 -0.5207 -0.1346
14402SOL    HW144647   4.763   6.904   2.639  0.3925  0.3063  2.0729
14402SOL    HW244648   4.769   6.815   2.761 -1.8824 -1.9394  0.6517
14403SOL     OW44649   3.487   1.496  11.123 -0.0297 -0.2031  0.2833
14403SOL    HW144650   3.535   1.473  11.202  0.8291  1.3685  0.2776
14403SOL    HW244651   3.481   1.592  11.126 -2.3468 -0.2719 -0.2196
14404SOL     OW44652   7.672   1.710   6.235 -0.7966 -0.2779  0.0765
14404SOL    HW144653   7.631   1.797   6.237  0.2051  0.1956  0.3482
14404SOL    HW244654   7.762   1.724   6.264 -0.8341 -1.5367  0.8798
14405SOL     OW44655   6.886   3.617   0.699 -0.1081  0.4751 -0.0018
14405SOL    HW144656   6.823   3.566   0.648 -0.8056  0.2696  1.0427
14405SOL    HW244657   6.970   3.596   0.659 -0.6963  1.0062 -1.6364
14406SOL     OW44658   5.975   0.172   9.782  0.5688 -0.0814 -0.3649
14406SOL    HW144659   6.016   0.250   9.745 -1.5513  0.3822 -1.9085
14406SOL    HW244660   5.921   0.205   9.854 -1.2971  0.1598 -1.7791
14407SOL     OW44661   3.016   6.100   7.393  0.1248  0.0695 -0.0477
14407SOL    HW144662   2.986   6.022   7.346  0.0881  0.2489 -0.3296
14407SOL    HW244663   3.112   6.094   7.390  0.1828 -1.3815  2.3264
14408SOL     OW44664   1.540   6.901   5.409 -0.4312 -0.0031 -0.5197
14408SOL    HW144665   1.598   6.826   5.419  0.2271  0.7950  2.8940
14408SOL    HW244666   1.452   6.866   5.425 -0.2837 -0.2790 -0.3192
14409SOL     OW44667   1.346   3.011   7.025 -0.5369 -0.1511  0.1208
14409SOL    HW144668   1.255   2.989   7.046 -0.3557  0.0259  1.1384
14409SOL    HW244669   1.384   3.038   7.109  0.2433  0.5259 -0.4426
14410SOL     OW44670   2.213   7.653   2.295 -0.3068  0.2130  0.1147
14410SOL    HW144671   2.241   7.658   2.203 -1.5442  0.9168 -0.2467
14410SOL    HW244672   2.127   7.611   2.292  0.8160 -2.3978  1.2497
14411SOL     OW44673   4.692   6.783   8.081 -0.2334  0.1273 -0.5643
14411SOL    HW144674   4.709   6.691   8.058 -0.2132 -0.2703  0.9456
14411SOL    HW244675   4.641   6.816   8.007 -2.6086 -1.8785  0.0054
14412SOL     OW44676   2.672   5.838   3.611 -0.2343  0.2327  0.1962
14412SOL    HW144677   2.696   5.901   3.680 -1.1052  0.3668  0.3827
14412SOL    HW244678   2.619   5.889   3.550 -0.7352 -0.2579  0.2186
14413SOL     OW44679   0.515   3.906   6.665  0.1108  0.3948 -0.4645
14413SOL    HW144680   0.507   3.889   6.571 -3.0376  1.1589 -0.4712
14413SOL    HW244681   0.445   3.854   6.705  1.3046  0.1628  1.4905
14414SOL     OW44682   1.867   2.363   1.480  0.5057  0.0599  0.0034
14414SOL    HW144683   1.942   2.347   1.423 -0.8631 -2.0019 -1.3422
14414SOL    HW244684   1.792   2.371   1.421 -0.4192  1.9567  1.3095
14415SOL     OW44685   4.441   2.532   7.563  0.4039  0.8544  0.2205
14415SOL    HW144686   4.526   2.569   7.585  0.9615 -0.9174  1.2491
14415SOL    HW244687   4.433   2.456   7.620 -1.3891  0.3431 -0.6529
14416SOL     OW44688   6.960   7.426  10.022  0.5683  0.2492  0.5179
14416SOL    HW144689   6.946   7.486   9.949 -0.5841  0.7799  1.1488
14416SOL    HW244690   6.900   7.353  10.005 -0.1779  0.6738  1.2310
14417SOL     OW44691   6.674   0.614   0.876  0.1018  0.4842 -0.3104
14417SOL    HW144692   6.694   0.673   0.803  0.6495 -0.7809 -1.2307
14417SOL    HW244693   6.649   0.532   0.833 -0.4429 -0.0159  0.9382
14418SOL     OW44694   7.304   2.815   3.401 -0.1479  0.1128 -0.2622
14418SOL    HW144695   7.323   2.738   3.455  0.7608  0.0870 -0.6027
14418SOL    HW244696   7.331   2.889   3.456 -0.0758  0.1392 -0.3346
14419SOL     OW44697   0.932   1.721   5.232 -0.6447  0.1938  0.1084
14419SOL    HW144698   0.920   1.816   5.228 -1.1092  0.1079 -0.5292
14419SOL    HW244699   1.020   1.710   5.269 -0.8751  0.8616  0.8965
14420SOL     OW44700   6.709   1.566   2.013  0.2293 -0.2909 -0.5306
14420SOL    HW144701   6.648   1.600   1.948 -0.5286  0.5689  0.5753
14420SOL    HW244702   6.656   1.505   2.065  0.5864 -0.3472 -0.2278
14421SOL     OW44703   6.866   4.584   5.955 -0.3004  0.3931 -0.1911
14421SOL    HW144704   6.909   4.624   6.031 -1.1678  0.7128  0.1408
14421SOL    HW244705   6.927   4.600   5.882  0.2773  0.5827  0.3226
14422SOL     OW44706   0.904   6.282   1.222 -0.3788 -0.0812  0.2572
14422SOL    HW144707   0.955   6.344   1.169 -0.0886  0.2273  0.8890
14422SOL    HW244708   0.816   6.320   1.224  0.0444  0.8955  1.5318
14423SOL     OW44709   0.629   1.402   8.248 -0.5290  0.3115 -0.3270
14423SOL    HW144710   0.622   1.324   8.304 -0.4884  1.9921  2.2126
14423SOL    HW244711   0.697   1.380   8.185 -0.5679 -1.7380  0.2582
14424SOL     OW44712   0.721   7.379  11.074  0.1558 -0.0676  0.0026
14424SOL    HW144713   0.800   7.338  11.108  0.2262  1.0991  1.3468
14424SOL    HW244714   0.689   7.318  11.007  1.9621 -0.7365 -0.3125
14425SOL     OW44715   6.745   2.130  11.232  0.0169  0.2533 -0.5902
14425SOL    HW144716   6.727   2.224  11.226 -0.7100  0.1450 -0.2635
14425SOL    HW244717   6.840   2.124  11.238  0.1386  0.9171 -1.5462
14426SOL     OW44718   6.947   2.831   0.509  0.2229 -1.2512 -0.2095
14426SOL    HW144719   7.039   2.843   0.485  1.1191 -1.0256  2.8809
14426SOL    HW244720   6.932   2.896   0.578 -2.0592 -1.7607 -0.1583
14427SOL     OW44721   1.055   5.497   4.273 -0.1329 -0.2434  0.0971
14427SOL    HW144722   1.066   5.584   4.312 -0.5459 -0.4337  0.6497
14427SOL    HW244723   0.977   5.505   4.219  0.3860 -0.0066 -0.6435
14428SOL     OW44724   0.646   0.482   0.125  0.5797 -0.4292  0.1247
14428SOL    HW144725   0.668   0.518   0.210  0.3766 -1.3606  0.5926
14428SOL    HW244726   0.558   0.515   0.106 -0.1354 -1.6501  1.1363
14429SOL     OW44727   0.652   1.069   6.896 -0.1888 -0.2568  0.0181
14429SOL    HW144728   0.637   1.128   6.822 -0.6303  0.1310  0.4118
14429SOL    HW244729   0.567   1.032   6.916  0.4102 -2.6581 -1.5375
14430SOL     OW44730   1.162   6.584  11.830  0.5849  0.7416  0.4964
14430SOL    HW144731   1.223   6.610  11.899  0.8514 -0.0598  0.5699
14430SOL    HW244732   1.075   6.597  11.867  0.5431  4.5313 -0.5039
14431SOL     OW44733   2.773   4.234   6.551 -0.4122  0.2228 -0.2435
14431SOL    HW144734   2.852   4.229   6.498 -0.5277  1.0459 -0.5040
14431SOL    HW244735   2.753   4.327   6.557 -1.4832  0.0216 -0.3629
14432SOL     OW44736   7.876   4.206   0.871  0.0321  0.6330  0.1246
14432SOL    HW144737   7.949   4.204   0.809  0.0328  0.2699  0.1403
14432SOL    HW244738   7.900   4.274   0.933  0.8422 -0.1894  0.7260
14433SOL     OW44739   7.770   7.175   1.096 -0.5479 -0.4471  0.6026
14433SOL    HW144740   7.762   7.247   1.034 -0.5545 -1.2343 -0.3289
14433SOL    HW244741   7.691   7.124   1.084 -0.4864 -0.6845  1.1677
14434SOL     OW44742   0.270   6.242   6.452 -0.0941  0.1187 -0.3845
14434SOL    HW144743   0.310   6.326   6.474 -0.2555 -0.0796  0.6896
14434SOL    HW244744   0.281   6.189   6.530 -0.0260 -0.8556 -1.0450
14435SOL     OW44745   2.705   4.914   1.459  0.2106  0.2430  0.2946
14435SOL    HW144746   2.687   4.825   1.488  1.8077 -0.1188  0.2651
14435SOL    HW244747   2.625   4.942   1.415 -0.9947 -0.4636  1.9544
14436SOL     OW44748   1.148   2.775  11.925 -0.8864 -0.3701  0.4469
14436SOL    HW144749   1.113   2.864  11.929 -1.3130 -0.5353  0.4715
14436SOL    HW244750   1.200   2.766  12.004  0.2097  0.2845 -0.1764
14437SOL     OW44751   4.759   4.697   9.330 -0.4049 -0.3044  0.1626
14437SOL    HW144752   4.673   4.738   9.333  0.4415  1.6212 -0.2180
14437SOL    HW244753   4.819   4.764   9.365  1.0640 -1.1791 -0.5650
14438SOL     OW44754   0.615   1.114   7.214 -0.2159 -0.0333  0.3741
14438SOL    HW144755   0.594   1.165   7.293  0.1136 -0.5591  0.8117
14438SOL    HW244756   0.634   1.180   7.148 -0.8344  0.4230  0.6349
14439SOL     OW44757   3.915   0.731   0.994  0.0214 -0.1622  0.2391
14439SOL    HW144758   3.948   0.807   0.946  0.4759  0.1801  1.0668
14439SOL    HW244759   3.854   0.769   1.058 -2.4811 -0.8008 -1.5694
14440SOL     OW44760   3.682   3.696  10.447 -0.3458  0.4569 -0.7461
14440SOL    HW144761   3.701   3.603  10.433 -3.1687 -0.2971 -0.1240
14440SOL    HW244762   3.764   3.732  10.481  1.0152 -1.6328 -1.6275
14441SOL     OW44763   6.369   0.737   3.913 -0.3076  0.5493  0.4882
14441SOL    HW144764   6.275   0.748   3.897 -0.2884  0.2467  0.1611
14441SOL    HW244765   6.376   0.726   4.008 -0.7840 -1.1021  0.3593
14442SOL     OW44766   0.966   5.713   8.399  0.1406 -0.3120 -0.2633
14442SOL    HW144767   0.962   5.765   8.479  3.1570 -2.6796  1.6460
14442SOL    HW244768   1.013   5.767   8.337 -1.3881  1.1741 -0.2076
14443SOL     OW44769   1.963   3.671   7.291 -0.4486  0.1860  0.7542
14443SOL    HW144770   1.918   3.587   7.302 -0.6618  0.2281  0.2487
14443SOL    HW244771   2.033   3.652   7.229 -0.1816  0.2710  1.0282
14444SOL     OW44772   3.299   5.999  12.439 -0.0244  0.0975 -0.0296
14444SOL    HW144773   3.285   5.905  12.452 -2.0224  0.4396  0.7384
14444SOL    HW244774   3.214   6.031  12.407  1.1763  1.3530 -2.2202
14445SOL     OW44775   4.885   2.167  10.166 -0.2909  0.6434  0.3876
14445SOL    HW144776   4.906   2.107  10.094  1.7387  0.2267  1.2782
14445SOL    HW244777   4.863   2.249  10.122  1.4145  0.5491 -0.7354
14446SOL     OW44778   7.119   3.992   4.523  0.0428 -0.0851  0.3497
14446SOL    HW144779   7.083   4.020   4.439 -1.7630  0.4093  1.2282
14446SOL    HW244780   7.192   4.051   4.540 -1.1904  1.5060  0.3018
14447SOL     OW44781   7.616   0.364   1.887 -0.1835 -0.3112 -0.0983
14447SOL    HW144782   7.642   0.448   1.925  0.2684 -0.5785  0.1860
14447SOL    HW244783   7.696   0.328   1.849 -0.4572 -0.4366 -0.5675
14448SOL     OW44784   4.731   5.036   3.986 -0.4377 -0.0545 -0.3419
14448SOL    HW144785   4.759   4.988   4.064 -2.0047 -0.3013  0.1087
14448SOL    HW244786   4.704   4.968   3.924 -0.7869  0.1805 -0.4514
14449SOL     OW44787   3.759   6.039   6.871 -0.5067  0.2594 -0.1870
14449SOL    HW144788   3.676   6.004   6.837 -1.5968  1.0571  1.4999
14449SOL    HW244789   3.773   6.120   6.821 -0.2822 -0.3281 -1.0807
14450SOL     OW44790   2.842   5.130   8.786  0.0794  0.6042 -0.1451
14450SOL    HW144791   2.798   5.209   8.755 -0.2518  0.0390 -1.1639
14450SOL    HW244792   2.805   5.114   8.873 -0.7526  0.8966 -0.4318
14451SOL     OW44793   2.194   7.665   8.254 -0.1162  0.4030 -0.0541
14451SOL    HW144794   2.276   7.679   8.302 -0.2376 -0.1496  0.3209
14451SOL    HW244795   2.202   7.578   8.217  0.5323  1.3114 -2.1908
14452SOL     OW44796   5.393   0.555   2.728 -0.5219 -0.3557 -0.2063
14452SOL    HW144797   5.320   0.618   2.727 -2.6434 -2.6737 -0.9803
14452SOL    HW244798   5.416   0.546   2.635 -1.8224 -2.3386 -0.3946
14453SOL     OW44799   0.172   6.926   2.323  0.2493  0.2068 -0.2007
14453SOL    HW144800   0.217   6.889   2.399 -0.9014 -0.9578 -0.0571
14453SOL    HW244801   0.183   7.020   2.333 -1.0193  0.1943  2.1897
14454SOL     OW44802   5.510   7.827   3.220 -0.0553  0.4961 -1.0212
14454SOL    HW144803   5.437   7.884   3.196 -1.9189 -1.9005 -1.3199
14454SOL    HW244804   5.479   7.777   3.295  2.7594  2.0658  1.4386
14455SOL     OW44805   5.237   4.564   4.357  0.0405 -0.0906  0.2786
14455SOL    HW144806   5.253   4.470   4.351 -1.0368 -0.2711 -0.1625
14455SOL    HW244807   5.275   4.590   4.440  1.3458 -0.6977 -0.1081
14456SOL     OW44808   1.361   7.488   8.237 -0.6138 -0.1328 -0.0779
14456SOL    HW144809   1.318   7.557   8.186  0.7631 -0.0687 -1.1872
14456SOL    HW244810   1.451   7.487   8.205  0.1329 -0.5403  1.9134
14457SOL     OW44811   3.734   5.557   8.269 -0.1513  0.1275 -0.1347
14457SOL    HW144812   3.774   5.543   8.183  2.7153 -0.9526  1.2528
14457SOL    HW244813   3.672   5.485   8.279  2.2175 -1.9785  0.1291
14458SOL     OW44814   1.849   3.886   6.559 -0.2483  0.1862 -0.4690
14458SOL    HW144815   1.814   3.957   6.507  0.2264  1.0339  0.3419
14458SOL    HW244816   1.787   3.875   6.631  0.1218  0.3546 -0.1228
14459SOL     OW44817   2.877   2.891   0.760  0.6804 -0.0375 -0.2229
14459SOL    HW144818   2.959   2.901   0.809  0.6881 -0.7948 -0.0618
14459SOL    HW244819   2.809   2.893   0.828  0.5116  1.2118 -0.4176
14460SOL     OW44820   0.886   4.873   5.238 -0.9398  0.4160  0.0783
14460SOL    HW144821   0.838   4.852   5.319  0.6315 -1.6255  0.5514
14460SOL    HW244822   0.939   4.949   5.261 -0.6533 -0.0264  0.9196
14461SOL     OW44823   6.233   1.242   0.484  0.3931 -0.6196 -0.4136
14461SOL    HW144824   6.193   1.265   0.400  2.1792  0.8604 -0.9367
14461SOL    HW244825   6.324   1.271   0.475 -0.2058  3.5380  3.4295
14462SOL     OW44826   2.910   4.409   2.139  0.0634 -0.6428 -0.4744
14462SOL    HW144827   2.924   4.502   2.119  2.1014 -0.9554 -0.7752
14462SOL    HW244828   2.959   4.395   2.220 -0.0820 -1.4954 -0.5277
14463SOL     OW44829   4.809   3.924   6.872 -0.2414 -0.4523 -0.0209
14463SOL    HW144830   4.803   3.926   6.776  0.8430 -1.0490 -0.1158
14463SOL    HW244831   4.768   4.005   6.900  0.4294  0.2758 -1.0588
14464SOL     OW44832   5.132   4.137   7.524  0.4645 -0.0308  0.8951
14464SOL    HW144833   5.145   4.145   7.619 -1.0322  0.7409  1.0520
14464SOL    HW244834   5.053   4.187   7.506  1.4791  1.0078 -0.9855
14465SOL     OW44835   2.646   2.234   6.098 -0.2916  0.0090  0.3128
14465SOL    HW144836   2.654   2.214   6.191  1.4604  0.1987  0.2307
14465SOL    HW244837   2.670   2.326   6.090 -0.1130 -0.0876 -0.3582
14466SOL     OW44838   5.608   0.372   5.193 -0.4074 -0.3282 -0.4418
14466SOL    HW144839   5.538   0.363   5.129  0.5140 -0.9608 -1.3897
14466SOL    HW244840   5.626   0.466   5.196 -0.3809 -0.3038 -1.2008
14467SOL     OW44841   5.123   3.667   3.383  0.5693  0.2167 -0.0760
14467SOL    HW144842   5.079   3.639   3.302  1.5933 -0.1989 -0.5063
14467SOL    HW244843   5.115   3.762   3.383 -2.7304  0.0747  1.2620
14468SOL     OW44844   4.938   0.624   1.903 -0.4026  0.0025 -0.3244
14468SOL    HW144845   4.873   0.693   1.893 -0.9045 -0.1686  1.4130
14468SOL    HW244846   4.962   0.600   1.814 -2.3132  0.4499 -0.9928
14469SOL     OW44847   1.276   5.854   9.148 -0.1462  0.0384  0.1488
14469SOL    HW144848   1.335   5.928   9.136 -0.3766  0.5476  1.9052
14469SOL    HW244849   1.317   5.783   9.100  2.7809 -0.0782  2.5160
14470SOL     OW44850   0.555   2.631   6.941  0.0885 -0.1084  0.0619
14470SOL    HW144851   0.494   2.585   6.998  0.5154 -1.0859 -0.2611
14470SOL    HW244852   0.631   2.648   6.997 -0.0738  0.2391  0.1840
14471SOL     OW44853   5.863   6.750   4.266 -0.1128 -0.0719 -0.0103
14471SOL    HW144854   5.889   6.840   4.285  0.2923  0.0578 -1.0493
14471SOL    HW244855   5.940   6.698   4.289  0.1281  0.0074 -0.6066
14472SOL     OW44856   2.283   6.424   5.050  0.3325 -0.1233  0.6813
14472SOL    HW144857   2.225   6.490   5.089  0.3694  0.4799 -0.2521
14472SOL    HW244858   2.245   6.408   4.964 -0.0949 -1.8842  1.1610
14473SOL     OW44859   1.178   4.928   4.882  0.0163 -0.3369 -0.2752
14473SOL    HW144860   1.199   4.908   4.791  0.5284  1.5392 -0.6200
14473SOL    HW244861   1.103   4.872   4.902 -1.4389  0.6455 -2.5179
14474SOL     OW44862   6.179   2.463   6.915 -0.6840 -0.4751  0.0289
14474SOL    HW144863   6.097   2.500   6.882 -0.9550 -1.3791 -0.3522
14474SOL    HW244864   6.239   2.469   6.841 -0.7604 -0.8719 -0.0693
14475SOL     OW44865   4.899   7.058   7.831  0.1405  0.4682 -0.2204
14475SOL    HW144866   4.962   7.115   7.788  0.0310 -0.2609 -1.4031
14475SOL    HW244867   4.843   7.117   7.880  1.0394  1.2234 -0.0782
14476SOL     OW44868   2.487   3.238   1.800  0.4142 -0.4855  0.0826
14476SOL    HW144869   2.428   3.274   1.734  0.3277 -0.0825  0.3726
14476SOL    HW244870   2.572   3.233   1.757  0.4141  0.0199  0.0288
14477SOL     OW44871   1.456   3.504  10.787 -0.0835  0.1367  0.2640
14477SOL    HW144872   1.521   3.529  10.853 -0.9584 -0.3536  1.3309
14477SOL    HW244873   1.377   3.483  10.837 -0.6299 -0.7078 -0.9033
14478SOL     OW44874   6.058   3.327   6.440  0.1966 -0.4560  0.4669
14478SOL    HW144875   6.034   3.333   6.532 -0.0272 -3.1150  0.6592
14478SOL    HW244876   5.978   3.351   6.393  0.4023  1.2190  0.9121
14479SOL     OW44877   7.649   4.624   2.373 -0.0729  0.4005 -0.1556
14479SOL    HW144878   7.710   4.631   2.300  0.7723  1.7387  0.6502
14479SOL    HW244879   7.581   4.564   2.341  1.5375 -0.9884 -1.1400
14480SOL     OW44880   6.713   2.600   7.333  0.1646  1.1393  0.1040
14480SOL    HW144881   6.617   2.606   7.341  0.0638 -0.0922 -0.0232
14480SOL    HW244882   6.729   2.608   7.240 -0.1158 -1.7712 -0.2873
14481SOL     OW44883   0.265   2.283   8.250 -0.4520 -0.1592 -0.1620
14481SOL    HW144884   0.312   2.235   8.318 -1.3017 -1.6888 -0.5966
14481SOL    HW244885   0.174   2.283   8.279 -0.7466 -0.3925 -1.0340
14482SOL     OW44886   7.518   7.189   7.793 -1.0206  0.0511  0.3134
14482SOL    HW144887   7.522   7.276   7.833 -0.9254  0.4587 -0.5674
14482SOL    HW244888   7.424   7.172   7.781 -1.0133  0.3625 -0.2116
14483SOL     OW44889   5.596   0.579   0.631 -0.6109  0.5826 -0.1196
14483SOL    HW144890   5.504   0.603   0.633  0.0047  3.4908 -1.2885
14483SOL    HW244891   5.619   0.578   0.538  0.1638 -2.0456  0.0139
14484SOL     OW44892   1.727   0.718   6.198  0.2238 -0.2898 -0.3923
14484SOL    HW144893   1.650   0.760   6.160 -1.1861 -1.4313  1.0808
14484SOL    HW244894   1.732   0.752   6.287  2.4466  1.0234 -0.9488
14485SOL     OW44895   7.637   6.434   5.070 -0.2750  0.0877  0.0971
14485SOL    HW144896   7.557   6.441   5.018 -1.5783  0.3217  2.0356
14485SOL    HW244897   7.662   6.525   5.088  0.7441  0.0292 -0.9032
14486SOL     OW44898   2.096   5.104   3.679  0.0140  0.7647  0.2320
14486SOL    HW144899   2.153   5.150   3.616  0.3724 -2.2847 -1.8755
14486SOL    HW244900   2.143   5.111   3.762  2.3508  0.3897 -0.9552
14487SOL     OW44901   0.203   0.215   2.245 -0.1935  0.2195  0.0199
14487SOL    HW144902   0.216   0.288   2.305 -1.7100 -0.4044  1.1695
14487SOL    HW244903   0.107   0.204   2.241 -0.0823 -0.5427 -1.5620
14488SOL     OW44904   0.883   0.696   7.853  0.9691  0.7402 -0.4536
14488SOL    HW144905   0.850   0.746   7.778  1.3258  1.0663 -0.3959
14488SOL    HW244906   0.844   0.738   7.929 -0.1847 -0.2028 -0.5018
14489SOL     OW44907   7.019   4.781   3.485 -0.3550 -0.0051  0.8860
14489SOL    HW144908   7.043   4.702   3.533 -0.8181  0.4073  1.8279
14489SOL    HW244909   7.082   4.847   3.515  0.1237 -0.0387 -0.0078
14490SOL     OW44910   2.859   5.083   3.437 -0.1877 -0.8464 -0.1910
14490SOL    HW144911   2.920   5.019   3.400  0.9881  0.2505 -0.2190
14490SOL    HW244912   2.774   5.061   3.398  0.6125 -1.0625 -1.8925
14491SOL     OW44913   6.462   2.497  11.583 -0.2506  0.4666  0.0338
14491SOL    HW144914   6.476   2.511  11.677 -0.1708 -1.9307  0.4612
14491SOL    HW244915   6.541   2.530  11.541  1.2798 -1.5013  1.1908
14492SOL     OW44916   6.405   2.993  10.290  0.0122 -0.2672 -0.0891
14492SOL    HW144917   6.418   3.052  10.365 -1.0231 -1.0209  0.6939
14492SOL    HW244918   6.459   2.917  10.311  0.5823 -0.0255 -0.6451
14493SOL     OW44919   5.416   2.833   4.848  0.2791  0.0450  0.6851
14493SOL    HW144920   5.337   2.831   4.794 -0.0500  2.7040  0.9173
14493SOL    HW244921   5.384   2.827   4.938  0.4906 -0.4089  0.7334
14494SOL     OW44922   1.413   5.614   4.487 -0.0139  0.3579  0.6279
14494SOL    HW144923   1.430   5.564   4.567 -2.1303  0.0377  0.9361
14494SOL    HW244924   1.365   5.554   4.431 -1.9118  1.7633  0.6762
14495SOL     OW44925   4.708   1.105   2.697 -0.4699  0.5270  0.3089
14495SOL    HW144926   4.712   1.010   2.692 -0.8903  0.4717  0.8720
14495SOL    HW244927   4.767   1.136   2.628  0.0952 -0.1418  0.4785
14496SOL     OW44928   2.390   2.348   9.195 -0.3204 -0.0563 -0.2439
14496SOL    HW144929   2.394   2.439   9.223  0.3540 -0.0426 -0.3733
14496SOL    HW244930   2.481   2.320   9.190 -0.4486 -0.2815 -1.6874
14497SOL     OW44931   2.788   3.021   1.469  0.1608  0.3408 -0.6188
14497SOL    HW144932   2.871   3.051   1.507 -0.8207  1.5398  0.6746
14497SOL    HW244933   2.775   2.934   1.506  0.0739  0.8016  0.4682
14498SOL     OW44934   3.185   6.051   3.391  0.1302  0.6376  0.1000
14498SOL    HW144935   3.161   6.144   3.388  0.5700  0.7344 -0.5921
14498SOL    HW244936   3.194   6.026   3.300  0.0437 -0.0866  0.2882
14499SOL     OW44937   4.252   4.353   2.849 -0.5575 -0.3870  0.9318
14499SOL    HW144938   4.205   4.378   2.769 -0.5269 -0.1691  0.9804
14499SOL    HW244939   4.183   4.329   2.911 -0.6738  0.8987  1.3327
14500SOL     OW44940   1.821   5.020   1.973  0.3326 -0.1014 -0.4172
14500SOL    HW144941   1.813   4.954   1.904  2.6420 -2.4439  1.3819
14500SOL    HW244942   1.749   5.000   2.034 -0.8607  1.0969 -1.3729
14501SOL     OW44943   1.973   5.861   6.295  0.1988  0.1917  0.0283
14501SOL    HW144944   1.907   5.803   6.257  0.7471 -1.7039  1.7969
14501SOL    HW244945   1.965   5.942   6.245 -1.4149 -0.9878 -1.7740
14502SOL     OW44946   6.917   5.694   2.529  0.1839 -0.3079  0.5856
14502SOL    HW144947   6.990   5.686   2.467  1.3539  3.9894  1.0607
14502SOL    HW244948   6.942   5.639   2.603  2.5253  0.2536  0.2990
14503SOL     OW44949   7.117   3.791   3.227  0.3132 -0.1387 -0.2075
14503SOL    HW144950   7.083   3.703   3.211  1.7353 -0.7624  0.0680
14503SOL    HW244951   7.044   3.838   3.267  0.0479 -1.6989  1.2316
14504SOL     OW44952   6.663   0.193  11.609 -0.5890  0.3447 -0.5990
14504SOL    HW144953   6.602   0.120  11.597 -0.3004  0.0043 -0.0495
14504SOL    HW244954   6.657   0.214  11.703 -1.6512  1.9066 -0.9901
14505SOL     OW44955   6.827   3.022  11.208 -0.6205 -0.5924 -0.0350
14505SOL    HW144956   6.758   3.088  11.195 -1.3294 -1.4835 -0.9671
14505SOL    HW244957   6.816   2.961  11.135  0.5364 -1.3099  0.3578
14506SOL     OW44958   7.642   1.098   8.789 -0.2416 -0.3698  0.1580
14506SOL    HW144959   7.598   1.168   8.837 -1.6668 -0.5392 -0.8292
14506SOL    HW244960   7.720   1.139   8.751  0.5383 -0.0752  1.9858
14507SOL     OW44961   2.345   0.917   2.597  0.4563  0.3003 -0.4769
14507SOL    HW144962   2.292   0.843   2.568 -0.6476  0.4081  1.0963
14507SOL    HW244963   2.281   0.984   2.621  1.2925  0.5739  1.1379
14508SOL     OW44964   3.023   5.975   3.932  0.4361  0.4203  0.8523
14508SOL    HW144965   3.052   5.973   4.023  1.8069 -1.0487  0.4354
14508SOL    HW244966   3.102   5.952   3.881 -0.3718  0.8867 -0.6764
14509SOL     OW44967   3.659   2.505   4.481  0.1150  0.6635 -0.0961
14509SOL    HW144968   3.680   2.414   4.505  1.1470  1.3029  1.5931
14509SOL    HW244969   3.738   2.537   4.437  0.1165  1.0415  0.1811
14510SOL     OW44970   2.710   4.190   2.241  0.3234  0.2271 -0.1315
14510SOL    HW144971   2.761   4.258   2.197  0.4435  1.2131  1.4748
14510SOL    HW244972   2.724   4.206   2.334 -0.7198 -1.1935  0.2949
14511SOL     OW44973   2.037   6.805   4.901 -0.1122 -0.1172 -0.3391
14511SOL    HW144974   1.967   6.867   4.878 -0.5885 -0.1385  0.9504
14511SOL    HW244975   2.002   6.719   4.876  0.3130  0.0695 -1.6006
14512SOL     OW44976   6.464   5.892   4.089  0.1695  0.8167 -0.2324
14512SOL    HW144977   6.409   5.931   4.021 -0.0336  1.3417  0.2192
14512SOL    HW244978   6.440   5.799   4.089  0.2120  0.8017 -0.9086
14513SOL     OW44979   3.108   4.754   7.885 -0.1834 -0.0219  0.0535
14513SOL    HW144980   3.077   4.831   7.838 -1.5631 -0.3293  0.4234
14513SOL    HW244981   3.177   4.788   7.942  0.0724  0.7116 -0.6674
14514SOL     OW44982   0.994   7.271   8.181 -0.1057 -0.2400  0.1124
14514SOL    HW144983   0.990   7.358   8.142 -0.2748 -0.6111 -0.7271
14514SOL    HW244984   1.062   7.225   8.132 -0.9169 -0.9947 -0.3366
14515SOL     OW44985   1.137   0.120   5.707 -0.0066 -0.2573 -0.0516
14515SOL    HW144986   1.139   0.083   5.619  1.8755 -1.3922  0.4067
14515SOL    HW244987   1.044   0.118   5.732 -0.2170 -3.0771 -0.7415
14516SOL     OW44988   4.276   7.344   9.694  0.0523  0.3707  0.0184
14516SOL    HW144989   4.319   7.286   9.757  0.0666  0.3146 -0.0429
14516SOL    HW244990   4.348   7.389   9.651  0.1731 -1.1566 -1.4801
14517SOL     OW44991   2.045   7.113   7.627  0.6307  0.4221  0.2957
14517SOL    HW144992   1.951   7.124   7.612  0.4516 -1.0551  0.1969
14517SOL    HW244993   2.080   7.089   7.541  1.4420  2.7406 -0.1011
14518SOL     OW44994   0.261   4.078  11.447 -0.2594  0.0068  0.2365
14518SOL    HW144995   0.248   3.983  11.454 -0.7089  0.1315  1.2587
14518SOL    HW244996   0.231   4.113  11.531  1.4008  0.9002  0.5071
14519SOL     OW44997   0.919   3.295   0.245  0.4970 -0.7246 -0.0636
14519SOL    HW144998   0.853   3.311   0.177 -0.1517 -1.5643  0.3539
14519SOL    HW244999   1.003   3.302   0.199  0.2696  2.1742 -0.2679
14520SOL     OW45000   1.152   4.342   1.898 -0.4428 -0.3930 -0.3976
14520SOL    HW145001   1.136   4.435   1.914 -1.3835 -0.3842 -1.3313
14520SOL    HW245002   1.243   4.329   1.925 -0.9295  0.3072  1.8307
14521SOL     OW45003   0.269   6.211   5.432 -0.3746 -0.8153 -0.0394
14521SOL    HW145004   0.352   6.252   5.455  0.7634 -2.4398 -1.0853
14521SOL    HW245005   0.224   6.200   5.516  0.0101  0.9532  0.4346
14522SOL     OW45006   6.541   0.166   4.451  0.5304 -0.1159  0.0568
14522SOL    HW145007   6.501   0.206   4.528  0.1275 -0.0691 -0.1743
14522SOL    HW245008   6.478   0.182   4.381  0.3559 -1.1526 -0.0396
14523SOL     OW45009   0.942   4.715  12.162  0.4107 -0.4364 -0.2155
14523SOL    HW145010   0.883   4.791  12.156 -0.3474 -0.9267  0.6794
14523SOL    HW245011   1.029   4.750  12.143 -0.1573  0.3153 -1.5413
14524SOL     OW45012   6.804   2.014  11.831 -0.1308  0.0578 -0.0413
14524SOL    HW145013   6.738   1.977  11.889 -0.0764 -1.0188 -0.6532
14524SOL    HW245014   6.791   1.970  11.748  0.9520  0.2888 -0.3470
14525SOL     OW45015   6.872   3.463   8.388  0.2879 -0.3336  0.2353
14525SOL    HW145016   6.877   3.532   8.322 -2.6753  0.4362  0.6983
14525SOL    HW245017   6.920   3.499   8.464 -0.1365  0.6783  0.0362
14526SOL     OW45018   5.076   2.131  11.861  0.2577  0.3048 -0.5292
14526SOL    HW145019   5.165   2.128  11.825  0.1534  3.6058 -1.3505
14526SOL    HW245020   5.088   2.153  11.954  0.3028  0.7877 -0.6491
14527SOL     OW45021   2.487   3.533   8.122  0.0703  0.0627  0.0650
14527SOL    HW145022   2.525   3.512   8.207  1.3557  1.3670 -0.1452
14527SOL    HW245023   2.563   3.555   8.067 -0.8524  0.8495 -0.9332
14528SOL     OW45024   6.706   5.389   2.264 -0.3726 -0.5035 -0.5459
14528SOL    HW145025   6.743   5.325   2.325 -0.2388  0.3147  0.2536
14528SOL    HW245026   6.704   5.471   2.313 -0.7069  0.0759 -1.4925
14529SOL     OW45027   2.023   0.511  11.684 -0.0425  0.6070  0.7210
14529SOL    HW145028   2.012   0.435  11.626 -1.9038  1.0940  0.3772
14529SOL    HW245029   2.005   0.476  11.772  2.3974 -0.0406  1.0588
14530SOL     OW45030   0.117   3.842   4.870  0.3107 -0.4959 -0.6831
14530SOL    HW145031   0.097   3.932   4.844  1.0421 -0.2837 -0.5230
14530SOL    HW245032   0.077   3.833   4.957  2.8378  0.7075  0.7221
14531SOL     OW45033   1.989   2.643   8.502 -0.6297  0.2700 -0.2186
14531SOL    HW145034   2.077   2.615   8.524 -0.4210  1.6603  0.8452
14531SOL    HW245035   1.957   2.575   8.442  0.7445 -0.8287  0.2213
14532SOL     OW45036   0.928   2.975   3.948 -0.3373 -0.3726  0.3529
14532SOL    HW145037   0.888   2.939   3.869 -0.6152 -2.0734  1.2425
14532SOL    HW245038   0.977   3.052   3.916 -1.8026 -0.0176 -1.1937
14533SOL     OW45039   7.512   1.891   1.872 -0.1888  0.0313  0.2324
14533SOL    HW145040   7.431   1.905   1.921  1.2972  0.6596  2.6834
14533SOL    HW245041   7.488   1.906   1.781 -3.2653 -1.7969  0.6029
14534SOL     OW45042   2.608   6.264   1.759 -0.1141 -0.4736  0.2185
14534SOL    HW145043   2.632   6.295   1.672  0.7273  2.0019  1.2435
14534SOL    HW245044   2.512   6.267   1.759 -0.1081  0.1514 -0.4361
14535SOL     OW45045   0.285   2.798   3.646  0.0887 -0.3465  0.1297
14535SOL    HW145046   0.240   2.785   3.563 -1.3018 -2.7650  1.1631
14535SOL    HW245047   0.273   2.716   3.694  1.4564  0.6851  2.4472
14536SOL     OW45048   4.485   2.272   5.974  0.3420  0.7309  0.1363
14536SOL    HW145049   4.458   2.194   5.926 -0.0710  1.2942 -0.5664
14536SOL    HW245050   4.524   2.239   6.055 -1.1908 -0.1520  0.5372
14537SOL     OW45051   0.574   3.678   5.103  0.7240 -0.1279  0.2219
14537SOL    HW145052   0.491   3.683   5.152  0.3738 -0.3753 -0.3338
14537SOL    HW245053   0.550   3.700   5.013  1.2223 -0.4207  0.0153
14538SOL     OW45054   0.060   6.747   1.360  0.7509 -0.6153 -0.4344
14538SOL    HW145055   0.079   6.823   1.305  0.3736  0.3928  0.7727
14538SOL    HW245056   0.022   6.784   1.439 -0.5257 -2.1518 -0.2812
14539SOL     OW45057   4.754   2.164   6.704 -0.4734 -0.1348  0.0958
14539SOL    HW145058   4.842   2.131   6.683  0.1829  1.5232  0.0684
14539SOL    HW245059   4.746   2.152   6.798 -0.8806 -1.7688 -0.1262
14540SOL     OW45060   4.158   0.333   0.688  0.7173 -0.5129  0.3510
14540SOL    HW145061   4.079   0.386   0.689  0.4008 -0.9654 -0.0972
14540SOL    HW245062   4.127   0.244   0.706  1.1145 -0.7080  0.0713
14541SOL     OW45063   3.494   4.317  12.197 -0.2912  0.3600  0.2620
14541SOL    HW145064   3.476   4.386  12.134 -0.5045  0.8802  0.8854
14541SOL    HW245065   3.453   4.347  12.279  0.9159  0.2216  0.9412
14542SOL     OW45066   4.035   1.337   5.761  0.0306  0.4366 -0.0862
14542SOL    HW145067   3.987   1.418   5.748  0.5189  0.4246 -2.2138
14542SOL    HW245068   4.049   1.302   5.673  2.5303 -0.3806  0.5598
14543SOL     OW45069   1.307   1.546  11.653  0.2161  0.0214 -0.5032
14543SOL    HW145070   1.340   1.458  11.671 -1.0130 -0.6874 -1.4679
14543SOL    HW245071   1.288   1.545  11.559  1.0531  1.6408 -0.7151
14544SOL     OW45072   4.248   0.491   6.060  0.0261  0.5805 -0.1531
14544SOL    HW145073   4.328   0.538   6.035 -0.4044  1.7294  0.5258
14544SOL    HW245074   4.180   0.558   6.059 -0.8688 -0.3211 -0.4136
14545SOL     OW45075   0.334   5.888   1.009  0.2553  0.7346  0.1441
14545SOL    HW145076   0.295   5.837   0.938  0.8596 -0.4783  0.6440
14545SOL    HW245077   0.426   5.896   0.985  0.7513 -0.7795  1.3365
14546SOL     OW45078   2.241   0.670   2.495  0.3017  0.2702  0.6141
14546SOL    HW145079   2.291   0.655   2.415  1.9957 -1.6286  1.9295
14546SOL    HW245080   2.194   0.588   2.510 -1.6942  1.3228  0.5030
14547SOL     OW45081   6.614   2.535  10.741  0.3761 -0.3312 -0.2988
14547SOL    HW145082   6.593   2.603  10.804  2.8957 -0.1382  0.4296
14547SOL    HW245083   6.544   2.540  10.675 -0.9351  1.1185  1.1420
14548SOL     OW45084   6.155   2.607   4.566 -0.2322 -0.4983 -0.1928
14548SOL    HW145085   6.172   2.526   4.518 -0.2646 -1.2320  0.9991
14548SOL    HW245086   6.144   2.580   4.657 -2.3237  0.5739 -0.0498
14549SOL     OW45087   1.657   6.019   5.267 -0.6579 -0.2293  0.2753
14549SOL    HW145088   1.739   5.975   5.288  1.2842  2.2946 -1.3135
14549SOL    HW245089   1.639   6.074   5.344 -0.7299 -0.6192  0.5370
14550SOL     OW45090   6.482   0.099   1.500 -0.1331  0.0138 -0.9489
14550SOL    HW145091   6.542   0.162   1.460  0.6894 -0.1691 -0.0556
14550SOL    HW245092   6.527   0.072   1.581 -1.1295 -0.6245 -0.5932
14551SOL     OW45093   5.805   3.749   9.898  0.2175  0.3872  0.1037
14551SOL    HW145094   5.794   3.766   9.992 -0.2066  0.1320  0.1059
14551SOL    HW245095   5.819   3.655   9.893  0.9820  0.5025 -0.0359
14552SOL     OW45096   6.986   3.597   8.097 -0.2543 -0.0647  0.5872
14552SOL    HW145097   7.062   3.544   8.072 -0.4144 -0.2491  0.4883
14552SOL    HW245098   6.993   3.675   8.041 -0.8540 -0.6772 -0.3743
14553SOL     OW45099   6.541   2.076   4.557  0.1839 -0.1663 -0.1723
14553SOL    HW145100   6.619   2.026   4.533 -0.2741 -1.3832  0.7550
14553SOL    HW245101   6.472   2.041   4.500 -0.3884 -1.4454  1.2254
14554SOL     OW45102   4.105   7.725   2.095 -0.3612 -0.2961  0.4606
14554SOL    HW145103   4.106   7.774   2.013 -0.6524 -0.8047  0.1470
14554SOL    HW245104   4.143   7.640   2.073 -0.1582 -0.3307  0.9254
14555SOL     OW45105   2.119   1.812   6.456  0.5269 -0.2748  0.2951
14555SOL    HW145106   2.213   1.830   6.467  0.0480  1.0186  3.5518
14555SOL    HW245107   2.087   1.886   6.405  1.0074  0.2299  0.7036
14556SOL     OW45108   1.974   6.120   8.930 -0.3254 -0.0286  0.6632
14556SOL    HW145109   2.066   6.134   8.907 -0.0465 -1.8637  0.5644
14556SOL    HW245110   1.943   6.055   8.867 -1.8326  0.8562  0.4400
14557SOL     OW45111   6.282   5.585   1.602  0.0584  0.1337 -0.4019
14557SOL    HW145112   6.295   5.644   1.528 -0.9585  0.7708 -0.1034
14557SOL    HW245113   6.306   5.637   1.678  3.3546 -1.2214 -0.3303
14558SOL     OW45114   6.496   2.441   0.932 -0.4597  0.0538  0.1517
14558SOL    HW145115   6.559   2.374   0.959  1.0770  0.7468 -1.4957
14558SOL    HW245116   6.517   2.517   0.987 -3.0628 -1.0506  2.9686
14559SOL     OW45117   3.703   5.387   7.224  0.0139  0.5538 -0.1046
14559SOL    HW145118   3.668   5.372   7.311 -1.1825  1.4781 -0.4014
14559SOL    HW245119   3.665   5.317   7.170 -0.3032  0.7644 -0.1537
14560SOL     OW45120   4.140   2.670   3.235  0.7754 -0.5182 -0.1407
14560SOL    HW145121   4.151   2.603   3.302  2.3500 -0.0341  0.1065
14560SOL    HW245122   4.213   2.658   3.176  0.9487  0.8158 -0.2359
14561SOL     OW45123   3.961   7.222  12.257 -0.4164 -0.3650  0.0355
14561SOL    HW145124   4.037   7.279  12.265  0.9480 -1.9366 -1.0641
14561SOL    HW245125   3.971   7.159  12.328 -0.8488 -0.4219  0.0491
14562SOL     OW45126   4.856   6.655  11.572 -0.1631  0.4671  0.1509
14562SOL    HW145127   4.791   6.621  11.632  0.5333 -2.2766 -0.5125
14562SOL    HW245128   4.938   6.654  11.622  0.1426 -0.3752 -0.3496
14563SOL     OW45129   3.207   3.999   1.332 -0.3779 -1.0201  0.2351
14563SOL    HW145130   3.301   3.988   1.345 -0.3568 -0.5160  0.5241
14563SOL    HW245131   3.197   4.013   1.238 -0.0418  0.0915  0.3502
14564SOL     OW45132   4.378   0.769   0.926 -0.3983  0.3653 -0.1372
14564SOL    HW145133   4.419   0.777   0.840  0.8985 -0.7883  0.3388
14564SOL    HW245134   4.409   0.685   0.959 -2.7382 -0.3070  0.5031
14565SOL     OW45135   0.544   6.050   1.734 -0.3507  0.5866  0.2097
14565SOL    HW145136   0.474   6.114   1.720 -0.7861  0.3526  1.2575
14565SOL    HW245137   0.602   6.062   1.659 -0.9263  1.5523 -0.1008
14566SOL     OW45138   0.096   5.076   9.001 -0.0644 -0.4273  0.1108
14566SOL    HW145139   0.138   5.046   9.082 -1.9289  0.7631  1.6141
14566SOL    HW245140   0.126   5.166   8.989 -0.7731 -0.1623  0.2315
14567SOL     OW45141   1.764   0.187   2.600 -0.3968 -0.3016 -0.6782
14567SOL    HW145142   1.764   0.280   2.578 -0.1950 -0.3809 -1.0137
14567SOL    HW245143   1.797   0.143   2.521  0.2757 -0.5927 -0.2485
14568SOL     OW45144   7.030   4.302   8.673 -0.2262 -0.0484  0.3011
14568SOL    HW145145   7.069   4.330   8.591 -2.1517  2.4291  0.1190
14568SOL    HW245146   7.017   4.207   8.663 -0.5082  0.1977 -2.2924
14569SOL     OW45147   0.928   4.976   4.607  0.5835 -0.4924  0.4292
14569SOL    HW145148   0.999   4.912   4.617  1.0785  0.0303  0.3087
14569SOL    HW245149   0.962   5.040   4.544 -1.0308 -1.7185 -1.8641
14570SOL     OW45150   2.501   6.759   4.247 -0.2343 -0.0406  0.8071
14570SOL    HW145151   2.476   6.758   4.155 -2.5612  1.1805  1.3336
14570SOL    HW245152   2.591   6.727   4.249 -0.3861 -0.7796 -1.7879
14571SOL     OW45153   3.274   1.560   8.735  0.3647  0.1526  0.5238
14571SOL    HW145154   3.203   1.501   8.762 -0.0453 -0.0618 -0.8999
14571SOL    HW245155   3.354   1.514   8.760  0.0382 -0.8008 -0.1264
14572SOL     OW45156   4.137   6.488   7.422  0.7318  0.6235  0.2115
14572SOL    HW145157   4.093   6.570   7.400  2.3166  1.2751 -0.6931
14572SOL    HW245158   4.065   6.427   7.440 -0.4913  2.1186  0.6655
14573SOL     OW45159   4.053   7.570   0.550  0.5841 -0.3778 -0.4184
14573SOL    HW145160   4.073   7.508   0.480  1.0232 -0.0834 -0.5631
14573SOL    HW245161   3.964   7.600   0.531  0.8154 -0.0682 -1.0347
14574SOL     OW45162   6.358   3.667  10.523  0.6149 -0.0556 -0.3871
14574SOL    HW145163   6.384   3.746  10.571 -0.5262  0.6916 -0.9791
14574SOL    HW245164   6.293   3.626  10.580  0.4524 -0.0310 -0.5582
14575SOL     OW45165   6.480   2.435   1.699  0.0567  0.1650  0.1560
14575SOL    HW145166   6.408   2.393   1.746  0.6528 -0.5917  0.3939
14575SOL    HW245167   6.468   2.529   1.716 -0.6336  0.0147  0.5248
14576SOL     OW45168   7.327   0.170  10.375 -0.0756  0.3973  0.7073
14576SOL    HW145169   7.350   0.234  10.443 -0.0953  2.4792 -1.1099
14576SOL    HW245170   7.249   0.126  10.409 -0.5845  1.9589  1.7092
14577SOL     OW45171   6.586   3.325   9.049  0.7068  0.1546  0.4070
14577SOL    HW145172   6.677   3.303   9.070  0.1946 -0.9122  1.6155
14577SOL    HW245173   6.583   3.421   9.051  1.3835  0.1607  2.2526
14578SOL     OW45174   0.136   4.222   6.308  0.0084  0.1187 -0.2909
14578SOL    HW145175   0.229   4.206   6.291  0.0417  0.5749 -0.5601
14578SOL    HW245176   0.128   4.318   6.306  0.0113  0.2469  2.2271
14579SOL     OW45177   2.129   5.456  12.412 -0.1749  0.5087  0.1109
14579SOL    HW145178   2.183   5.520  12.365  1.1245 -0.8056 -0.2678
14579SOL    HW245179   2.192   5.399  12.455 -1.3195 -0.0713  1.0767
14580SOL     OW45180   0.748   6.293  12.012  0.1490  0.2105 -0.2276
14580SOL    HW145181   0.668   6.346  12.016 -0.2585 -0.4114  0.0731
14580SOL    HW245182   0.811   6.340  12.066  0.1062  0.9027 -0.7682
14581SOL     OW45183   0.263   3.043   4.246  0.1419  0.6222  0.3705
14581SOL    HW145184   0.295   3.057   4.335 -0.9695  1.8632  0.6046
14581SOL    HW245185   0.168   3.046   4.254 -0.0498 -1.1943 -0.5751
14582SOL     OW45186   4.240   7.710   5.396  0.2362 -0.1407  0.8353
14582SOL    HW145187   4.288   7.712   5.479 -0.5958 -0.5437  1.3411
14582SOL    HW245188   4.148   7.706   5.422 -0.0194 -0.5728 -0.1014
14583SOL     OW45189   7.875   0.450   7.130 -0.0780 -0.3247  0.1465
14583SOL    HW145190   7.789   0.413   7.115 -0.4175 -0.7267  2.5861
14583SOL    HW245191   7.928   0.377   7.162  1.1981 -0.0829 -1.2701
14584SOL     OW45192   2.025   6.507  11.968  0.3326  0.1692 -0.1863
14584SOL    HW145193   1.989   6.569  12.032 -0.7298  0.2957 -0.8994
14584SOL    HW245194   2.091   6.459  12.018 -1.2002 -0.4795  1.3384
14585SOL     OW45195   3.866   7.681   6.076 -0.4729 -0.2424 -0.2568
14585SOL    HW145196   3.941   7.646   6.123  1.0228  0.6533 -1.8571
14585SOL    HW245197   3.833   7.608   6.024 -0.5925 -0.5880  0.3068
14586SOL     OW45198   0.900   6.966   5.238  0.2990  0.0017 -0.2631
14586SOL    HW145199   0.861   6.880   5.226  2.2668 -0.8938 -0.6745
14586SOL    HW245200   0.839   7.013   5.295 -1.6401 -1.0553 -1.3781
14587SOL     OW45201   6.768   5.072  10.433  0.3872  0.4065  0.4488
14587SOL    HW145202   6.793   5.015  10.360 -2.4306 -2.5275  1.5199
14587SOL    HW245203   6.817   5.038  10.508 -0.4450  0.0802  0.8631
14588SOL     OW45204   3.846   3.842  10.740  0.1699  0.1125  0.4486
14588SOL    HW145205   3.768   3.791  10.761  0.4229 -0.5441 -0.1760
14588SOL    HW245206   3.856   3.902  10.814 -0.7494 -0.0018  0.6783
14589SOL     OW45207   4.109   1.363   6.997 -0.1842 -0.2425 -0.4721
14589SOL    HW145208   4.113   1.268   7.008 -3.8022 -0.6863 -1.6829
14589SOL    HW245209   4.077   1.376   6.908 -3.3074  1.8799  0.7635
14590SOL     OW45210   2.702   5.003   2.314  0.0814  0.6138 -0.0305
14590SOL    HW145211   2.735   4.921   2.351 -0.6054  0.6664  0.7235
14590SOL    HW245212   2.607   5.000   2.329 -0.1279  0.9619 -1.1675
14591SOL     OW45213   2.117   6.900   3.354  0.2629  0.0697  0.4061
14591SOL    HW145214   2.027   6.873   3.336 -0.1170 -0.2819  2.5964
14591SOL    HW245215   2.120   6.993   3.329 -0.1797 -0.3346 -1.2901
14592SOL     OW45216   1.198   6.362   6.792  0.5420 -0.0442 -0.6346
14592SOL    HW145217   1.182   6.421   6.866  0.5135 -0.7990 -0.0337
14592SOL    HW245218   1.215   6.421   6.718  0.7335  0.7219  0.0049
14593SOL     OW45219   6.533   0.177   3.906 -0.6075  0.6097 -0.1989
14593SOL    HW145220   6.539   0.269   3.932  0.0711  0.4454  0.2540
14593SOL    HW245221   6.624   0.148   3.901 -0.7934 -0.9333  2.9244
14594SOL     OW45222   7.617   1.103   0.971 -0.6181  0.1942  0.1103
14594SOL    HW145223   7.559   1.047   1.022 -0.5910 -0.6962 -0.7962
14594SOL    HW245224   7.642   1.173   1.031 -2.0740  0.2193  0.7278
14595SOL     OW45225   0.029   5.469   4.573 -0.3732  0.1818 -0.1377
14595SOL    HW145226  -0.020   5.549   4.594 -2.2197 -0.6889 -0.8921
14595SOL    HW245227  -0.007   5.403   4.632 -0.0811 -0.4841 -0.6874
14596SOL     OW45228   7.370   6.510   6.410  0.0252 -0.1006 -0.0559
14596SOL    HW145229   7.402   6.440   6.468 -0.8090 -1.4266 -1.1380
14596SOL    HW245230   7.275   6.504   6.415 -0.1233  2.2998  1.3503
14597SOL     OW45231   6.433   1.297   1.312  0.0508  0.2009  0.6341
14597SOL    HW145232   6.345   1.279   1.346  0.5144  0.0969  1.8268
14597SOL    HW245233   6.438   1.392   1.308 -0.7640  0.2134 -1.2651
14598SOL     OW45234   1.751   1.270   6.335 -0.2793 -0.3286 -0.4476
14598SOL    HW145235   1.772   1.357   6.301 -1.5947 -0.0713 -0.6628
14598SOL    HW245236   1.666   1.249   6.297 -0.2181 -1.4981  0.0082
14599SOL     OW45237   1.649   2.604   5.618 -0.5022 -1.1566 -0.3844
14599SOL    HW145238   1.580   2.632   5.679  0.4699 -0.0123  0.2477
14599SOL    HW245239   1.680   2.521   5.653  0.1595 -0.4360  0.8410
14600SOL     OW45240   6.595   3.557   5.167 -0.2270 -0.1376 -0.3300
14600SOL    HW145241   6.621   3.595   5.083  0.5861 -1.2076 -0.5857
14600SOL    HW245242   6.638   3.472   5.168 -1.9275 -1.0207  0.2617
14601SOL     OW45243   1.308   3.918   3.909  0.0490 -0.2052 -0.1065
14601SOL    HW145244   1.360   3.956   3.980  0.5811 -1.1394  0.0329
14601SOL    HW245245   1.245   3.985   3.886  1.0982  0.8356 -0.0404
14602SOL     OW45246   1.087   1.733   8.665  0.4387  0.3838 -0.2570
14602SOL    HW145247   1.135   1.743   8.582  1.2593 -1.3154 -0.0288
14602SOL    HW245248   1.156   1.719   8.730 -0.2287  1.3331  0.6856
14603SOL     OW45249   6.241   4.635   8.976  0.3479 -0.0797 -0.5414
14603SOL    HW145250   6.317   4.647   8.918  2.6592  0.7075  2.4022
14603SOL    HW245251   6.200   4.555   8.943  1.7915  0.0320 -2.9255
14604SOL     OW45252   2.976   5.018   7.818  0.0536 -0.0976 -0.6483
14604SOL    HW145253   2.939   5.050   7.900  1.3173  1.6725 -0.7231
14604SOL    HW245254   2.952   5.085   7.753  1.9438  0.2962 -1.0120
14605SOL     OW45255   1.016   0.155  10.415 -0.6219 -0.2401 -0.3085
14605SOL    HW145256   1.008   0.250  10.407 -2.4118 -0.1963  1.2420
14605SOL    HW245257   1.060   0.142  10.499  0.3463 -0.8005 -0.8851
14606SOL     OW45258   1.637   3.260  10.191  0.0665 -0.0123 -0.1620
14606SOL    HW145259   1.550   3.239  10.157  0.3801 -0.9120 -0.4059
14606SOL    HW245260   1.620   3.329  10.256 -0.8392 -0.2467 -0.1321
14607SOL     OW45261   4.214   5.744   8.062  0.0531 -0.1567  0.6590
14607SOL    HW145262   4.262   5.825   8.076 -0.8117  0.2791  1.1635
14607SOL    HW245263   4.200   5.709   8.150  1.4710 -1.4951  0.3945
14608SOL     OW45264   7.943   2.106   0.516  0.5862  0.3556 -0.0091
14608SOL    HW145265   7.988   2.086   0.434  0.7619  1.9537 -0.3443
14608SOL    HW245266   8.008   2.154   0.568  0.6613 -1.1132  1.3247
14609SOL     OW45267   3.752   3.104   0.660 -0.0675 -0.0476  0.2971
14609SOL    HW145268   3.693   3.177   0.639 -0.4958 -0.1011  1.2534
14609SOL    HW245269   3.732   3.083   0.751 -1.3467 -2.6429 -0.4715
14610SOL     OW45270   0.768   2.694   1.162  0.0608  0.8031 -0.3458
14610SOL    HW145271   0.679   2.726   1.150 -0.3864 -0.6136 -1.0800
14610SOL    HW245272   0.758   2.616   1.218  0.6594 -0.0908 -1.4382
14611SOL     OW45273   1.989   2.076   9.455  0.3644  0.0497  0.1121
14611SOL    HW145274   2.015   2.114   9.371 -0.3606 -0.3295 -0.2849
14611SOL    HW245275   2.072   2.049   9.495  0.5654 -3.3080 -2.1491
14612SOL     OW45276   2.167   0.593   8.195 -0.7382  0.3636 -0.1820
14612SOL    HW145277   2.129   0.507   8.179 -1.1281  0.4244  0.3724
14612SOL    HW245278   2.224   0.609   8.120  0.2733 -0.8916  0.2705
14613SOL     OW45279   4.942   2.064   6.111  0.0814 -0.3821 -0.6361
14613SOL    HW145280   4.890   2.142   6.090 -1.7555 -0.8013  1.8556
14613SOL    HW245281   4.909   1.997   6.051  1.8640  0.6991 -2.9882
14614SOL     OW45282   2.568   1.468   7.469  0.4244  0.2839 -0.1005
14614SOL    HW145283   2.659   1.438   7.468  0.3259 -0.0300  0.1798
14614SOL    HW245284   2.549   1.482   7.562 -0.3697 -1.3910  0.0291
14615SOL     OW45285   6.297   4.804  12.352 -0.4416 -0.3902 -0.0076
14615SOL    HW145286   6.238   4.838  12.285  1.1216  0.2796 -1.1062
14615SOL    HW245287   6.354   4.743  12.305  0.4379 -0.2014  0.7883
14616SOL     OW45288   5.040   5.345   9.881  0.0633  0.0960  0.2467
14616SOL    HW145289   5.094   5.423   9.895  1.8152 -1.0240  0.0180
14616SOL    HW245290   4.965   5.376   9.830  2.8039  0.9562 -3.6186
14617SOL     OW45291   7.822   3.300   1.614  0.2671 -0.2608  0.1384
14617SOL    HW145292   7.812   3.381   1.565 -0.6244 -1.0074 -0.9473
14617SOL    HW245293   7.891   3.252   1.568  1.0716  0.0123  1.0062
14618SOL     OW45294   5.160   0.761   2.475  0.5640  0.1611  0.2537
14618SOL    HW145295   5.085   0.821   2.477  0.6473  0.2346  1.2219
14618SOL    HW245296   5.184   0.749   2.566 -0.0892 -2.1734  0.1789
14619SOL     OW45297   2.729   0.567   3.341 -0.4118  0.5651  0.2384
14619SOL    HW145298   2.742   0.662   3.339  2.2190  0.3188  1.3965
14619SOL    HW245299   2.725   0.545   3.434 -1.8968 -0.3994 -0.0169
14620SOL     OW45300   5.899   1.166  11.635 -0.0401  0.0804  0.1635
14620SOL    HW145301   5.823   1.192  11.583 -0.1506 -2.4247 -1.0694
14620SOL    HW245302   5.860   1.130  11.715 -0.0609  0.3781  0.2884
14621SOL     OW45303   5.374   4.258   2.402 -0.8372 -0.2902 -0.3324
14621SOL    HW145304   5.283   4.244   2.374 -1.2440 -0.1860  0.8959
14621SOL    HW245305   5.418   4.292   2.323 -1.7957 -0.5865 -1.0099
14622SOL     OW45306   4.527   3.865   2.816  0.2110  0.6850 -0.6489
14622SOL    HW145307   4.565   3.951   2.834 -0.1813  0.8523 -0.5980
14622SOL    HW245308   4.467   3.881   2.743  0.1991  0.4388 -0.6924
14623SOL     OW45309   7.806   7.374   1.952 -0.2231  0.2789 -0.2316
14623SOL    HW145310   7.883   7.402   2.000 -0.7448 -0.9373  1.3998
14623SOL    HW245311   7.739   7.438   1.974 -0.1208  0.4202 -0.3318
14624SOL     OW45312   6.038   7.248   4.804 -0.3608  0.0792  0.3217
14624SOL    HW145313   6.055   7.290   4.889  0.4888  0.6798 -0.1355
14624SOL    HW245314   6.024   7.156   4.826  0.7010  0.0735  1.0417
14625SOL     OW45315   7.543   1.318   6.745 -0.0852  0.3786 -0.2001
14625SOL    HW145316   7.472   1.379   6.720 -0.6178  0.1160  0.6206
14625SOL    HW245317   7.539   1.316   6.840 -0.6618 -1.6281 -0.2283
14626SOL     OW45318   3.868   3.726   6.112  0.4394 -0.2712  0.3823
14626SOL    HW145319   3.863   3.793   6.181  0.0387 -0.0260  0.1188
14626SOL    HW245320   3.829   3.649   6.152  0.0318 -0.0747  0.3668
14627SOL     OW45321   0.922   6.221   3.574  0.1793 -0.2299 -0.0203
14627SOL    HW145322   0.911   6.299   3.629  0.1815 -0.7081  0.6722
14627SOL    HW245323   1.015   6.220   3.552  0.4761 -0.7987  1.1553
14628SOL     OW45324   0.410   1.422   9.657 -0.3274  0.0205 -0.4651
14628SOL    HW145325   0.396   1.410   9.563  0.6375  1.0879 -0.7683
14628SOL    HW245326   0.335   1.475   9.685 -0.1068  0.5522 -0.8492
14629SOL     OW45327   0.055   6.387   6.533  0.3379 -0.4981  0.2228
14629SOL    HW145328   0.003   6.386   6.453  0.8532  0.1309 -0.1268
14629SOL    HW245329   0.136   6.340   6.510  1.2253  1.1434 -0.1524
14630SOL     OW45330   2.578   1.703   3.190  0.2642 -0.1616 -0.2537
14630SOL    HW145331   2.517   1.637   3.223 -0.1247  0.0371 -0.5668
14630SOL    HW245332   2.653   1.652   3.158 -0.1147 -0.4646 -0.6666
14631SOL     OW45333   6.098   6.603   5.749 -0.6751  0.4847  0.0479
14631SOL    HW145334   6.137   6.517   5.738  0.0834  0.7567  0.5143
14631SOL    HW245335   6.044   6.596   5.827  0.2448  0.7197  0.7151
14632SOL     OW45336   5.678   1.213   2.280 -0.0608  0.1105 -0.2281
14632SOL    HW145337   5.669   1.135   2.334  0.4835  0.0880 -0.1628
14632SOL    HW245338   5.769   1.240   2.293  0.3702 -0.4423 -1.8753
14633SOL     OW45339   4.132   7.737   0.248 -0.2050  0.4659  0.1084
14633SOL    HW145340   4.156   7.826   0.274  0.0725  0.0611  1.2749
14633SOL    HW245341   4.051   7.719   0.296 -1.4218  0.8302 -1.7196
14634SOL     OW45342   7.096   0.711   8.535 -0.6695  0.2077 -0.0623
14634SOL    HW145343   7.131   0.731   8.622  0.4840 -0.4314 -0.3653
14634SOL    HW245344   7.128   0.623   8.516  0.5363  0.9905 -1.8374
14635SOL     OW45345   3.244   4.643   7.170  0.2219 -0.0765 -0.2314
14635SOL    HW145346   3.174   4.707   7.167  1.1906  1.0049 -0.3647
14635SOL    HW245347   3.213   4.576   7.231 -1.3960 -0.2271 -1.1431
14636SOL     OW45348   3.275   7.242   5.361 -0.2668 -0.7440 -0.0288
14636SOL    HW145349   3.314   7.315   5.409 -0.8573 -0.2610 -0.2768
14636SOL    HW245350   3.342   7.174   5.363  0.4184 -0.0870 -0.0574
14637SOL     OW45351   0.340   7.964  11.291  0.1607  0.4774  0.0597
14637SOL    HW145352   0.267   8.003  11.338 -0.4059 -1.4993  0.9390
14637SOL    HW245353   0.308   7.953  11.201 -0.1213  0.8659  0.1126
14638SOL     OW45354   1.420   1.935  11.282  0.2636  0.2393 -0.7216
14638SOL    HW145355   1.496   1.904  11.331 -0.3533  0.0806  0.1700
14638SOL    HW245356   1.345   1.907  11.335 -0.4408 -0.1699 -1.9065
14639SOL     OW45357   6.505   7.464   5.450 -0.3641  0.1761 -0.1526
14639SOL    HW145358   6.543   7.503   5.372 -0.3284 -0.5351 -0.4980
14639SOL    HW245359   6.580   7.440   5.504 -0.1863 -2.6669 -1.5254
14640SOL     OW45360   6.441   1.974   2.706  0.4665  0.5434  0.0506
14640SOL    HW145361   6.471   1.897   2.753  1.5631  1.5222  1.0288
14640SOL    HW245362   6.435   2.043   2.772 -3.7258  0.5680 -0.1417
14641SOL     OW45363   5.254   5.603   9.789 -0.2783 -0.2212 -0.6350
14641SOL    HW145364   5.279   5.545   9.716  0.8689  0.8812 -1.1643
14641SOL    HW245365   5.182   5.655   9.754 -0.2746 -0.2529 -0.6905
14642SOL     OW45366   0.643   7.133   2.057  0.4881  0.0001  0.0441
14642SOL    HW145367   0.682   7.120   2.144  1.0608 -0.8927 -0.3374
14642SOL    HW245368   0.643   7.047   2.017  1.0139  0.5400 -1.1710
14643SOL     OW45369   7.459   7.199   1.203 -0.0756 -0.1982  0.2740
14643SOL    HW145370   7.505   7.122   1.169  0.9293  0.8798 -0.9476
14643SOL    HW245371   7.465   7.191   1.298  0.9947 -1.0717  0.1522
14644SOL     OW45372   5.222   4.730   9.679  0.3911 -0.3120 -0.2681
14644SOL    HW145373   5.275   4.748   9.757 -0.0050 -1.7770  0.3780
14644SOL    HW245374   5.157   4.801   9.677  0.5372 -0.1473  0.6136
14645SOL     OW45375   0.735   5.636   9.824 -0.0924 -0.2362 -0.4589
14645SOL    HW145376   0.738   5.614   9.917  1.4697 -0.1725 -0.4756
14645SOL    HW245377   0.779   5.563   9.781  0.4692  0.4064 -1.0011
14646SOL     OW45378   0.493   0.749   8.277  0.7158 -0.8022 -0.2283
14646SOL    HW145379   0.508   0.840   8.254  1.6305 -0.8451  0.1830
14646SOL    HW245380   0.410   0.750   8.325  1.9065  0.2104  1.9855
14647SOL     OW45381   4.125   1.305  10.066  0.0612  0.3167 -0.1331
14647SOL    HW145382   4.185   1.314  10.141 -0.4598  0.8411  0.2323
14647SOL    HW245383   4.108   1.396  10.039 -0.8308  0.1879 -0.0225
14648SOL     OW45384   0.771   6.249   9.087  0.0638  0.2231  0.4055
14648SOL    HW145385   0.799   6.196   9.013 -0.4946  2.1116 -1.2421
14648SOL    HW245386   0.853   6.278   9.128  0.3752 -1.2172  0.8751
14649SOL     OW45387   2.002   6.207   7.167  0.3002  0.6169 -0.5104
14649SOL    HW145388   1.921   6.252   7.147 -1.1081 -1.7866 -0.6237
14649SOL    HW245389   2.014   6.219   7.262 -0.7424  0.1810 -0.3146
14650SOL     OW45390   0.178   5.433   5.496  0.2758  0.0174 -0.1261
14650SOL    HW145391   0.101   5.452   5.549  1.1472 -0.7154  1.4836
14650SOL    HW245392   0.158   5.351   5.452  0.1510 -0.1999  0.3330
14651SOL     OW45393   3.068   5.349   4.082  0.1094  0.7341  0.3702
14651SOL    HW145394   3.095   5.286   4.149  0.2254  0.0428 -0.3130
14651SOL    HW245395   3.061   5.432   4.129  0.9206  0.4163  1.0931
14652SOL     OW45396   2.719   3.731   3.997 -0.3005 -0.3106 -0.2241
14652SOL    HW145397   2.778   3.655   4.001  0.0601 -0.0346 -0.2695
14652SOL    HW245398   2.673   3.730   4.081 -1.3809 -1.4378 -0.8013
14653SOL     OW45399   6.606   6.463   9.418  0.0501  0.0400  0.6786
14653SOL    HW145400   6.605   6.558   9.411  0.1186  0.0305  0.5162
14653SOL    HW245401   6.697   6.438   9.401 -0.1364 -0.1113 -0.1903
14654SOL     OW45402   5.925   2.674   9.827 -0.0369 -0.3595  0.2290
14654SOL    HW145403   5.856   2.738   9.810  0.3506 -0.1833 -0.7852
14654SOL    HW245404   5.933   2.625   9.744  0.3276 -1.0795  0.6759
14655SOL     OW45405   6.324   1.743  11.745  0.2971  0.0215 -0.1825
14655SOL    HW145406   6.389   1.804  11.780  1.0329 -1.0583  0.3999
14655SOL    HW245407   6.368   1.658  11.746 -0.7744 -0.5610 -0.7747
14656SOL     OW45408   3.582   5.777   2.872 -0.1081 -0.1961  0.5953
14656SOL    HW145409   3.528   5.777   2.794 -0.0584  1.4261  0.5325
14656SOL    HW245410   3.610   5.686   2.882 -1.6586 -0.7924 -0.1741
14657SOL     OW45411   5.829   0.777   6.736  0.3113 -0.1394  0.5679
14657SOL    HW145412   5.837   0.683   6.719  0.2274 -0.2918  1.2995
14657SOL    HW245413   5.758   0.783   6.801 -1.2217  0.6265 -1.0942
14658SOL     OW45414   5.611   7.851   1.692 -0.2481  0.4225 -0.0032
14658SOL    HW145415   5.589   7.761   1.667 -1.5486 -0.1911  2.9761
14658SOL    HW245416   5.700   7.845   1.726  0.8480  0.9392 -2.5167
14659SOL     OW45417   5.400   2.601  10.034 -0.1471 -0.1066  0.2182
14659SOL    HW145418   5.314   2.614   9.996  0.0615 -1.1504 -0.6441
14659SOL    HW245419   5.397   2.514  10.073 -0.7594  1.3226  3.7948
14660SOL     OW45420   7.824   5.295   4.325 -0.1070  0.0891 -0.0082
14660SOL    HW145421   7.870   5.379   4.319 -0.3468  0.4489  2.2194
14660SOL    HW245422   7.815   5.280   4.419  0.0276 -2.5114 -0.3474
14661SOL     OW45423   0.725   6.571   6.259  0.1345 -0.3407  1.0254
14661SOL    HW145424   0.781   6.573   6.181 -0.1737  0.2216  0.8087
14661SOL    HW245425   0.765   6.506   6.316  1.1418  0.2158  0.9735
14662SOL     OW45426   2.429   5.490   7.538 -0.3310  0.5864 -0.0359
14662SOL    HW145427   2.489   5.438   7.484  2.3439  0.6778  2.6123
14662SOL    HW245428   2.473   5.574   7.549 -0.8733  0.6445  2.0500
14663SOL     OW45429   3.697   2.789   9.099 -0.3003  0.6719 -0.0843
14663SOL    HW145430   3.765   2.737   9.057  0.3427  1.1794  0.3113
14663SOL    HW245431   3.643   2.821   9.027 -0.0133  0.4116 -0.4151
14664SOL     OW45432   3.728   6.161   4.369 -0.0639 -0.3717  0.0045
14664SOL    HW145433   3.770   6.227   4.425  2.0060 -2.6208  1.2952
14664SOL    HW245434   3.790   6.148   4.297 -0.5910 -0.7137 -0.3942
14665SOL     OW45435   3.996   6.007   7.026 -0.1277 -0.1861  0.0700
14665SOL    HW145436   3.916   6.041   6.984  0.2332 -0.2120 -0.6536
14665SOL    HW245437   3.975   5.917   7.048 -0.4375 -0.0703  0.2633
14666SOL     OW45438   3.332   1.257  10.347  0.6200  0.2441  0.5339
14666SOL    HW145439   3.253   1.260  10.400  0.6626  1.9820  0.5534
14666SOL    HW245440   3.371   1.171  10.367 -2.6534 -1.9866 -1.6291
14667SOL     OW45441   4.170   4.525  11.915 -0.0794 -0.6253 -0.1365
14667SOL    HW145442   4.196   4.444  11.871  0.1454  0.0217 -1.2357
14667SOL    HW245443   4.227   4.530  11.992 -0.6386 -1.8899  0.3923
14668SOL     OW45444   5.516   4.779   2.125 -0.3932  0.1512 -0.1927
14668SOL    HW145445   5.433   4.765   2.172  0.3136 -0.2934  0.9566
14668SOL    HW245446   5.495   4.759   2.033 -1.8514  1.2178 -0.1308
14669SOL     OW45447   1.295   3.591   0.240  0.4842  0.2425 -0.0193
14669SOL    HW145448   1.255   3.505   0.252  0.1105  0.3248 -0.6186
14669SOL    HW245449   1.242   3.633   0.172  0.8744  0.8134  0.0179
14670SOL     OW45450   2.111   7.385   1.419 -0.3143  0.3347  0.4099
14670SOL    HW145451   2.170   7.324   1.373  1.5253  2.8662 -0.8422
14670SOL    HW245452   2.151   7.395   1.506 -0.9380 -0.5896  0.8252
14671SOL     OW45453   7.725   0.158   2.597 -0.2883 -0.1507  0.2694
14671SOL    HW145454   7.749   0.089   2.535 -0.0893  1.5050 -1.5876
14671SOL    HW245455   7.634   0.178   2.577  0.0498  1.0365 -0.1445
14672SOL     OW45456   5.035   7.527   8.341  0.1094  0.0072 -0.0985
14672SOL    HW145457   5.047   7.621   8.329 -1.3498  0.3437  0.7742
14672SOL    HW245458   5.095   7.487   8.279 -0.7927  1.5154 -2.0609
14673SOL     OW45459   0.863   2.797  10.346 -0.2277 -0.0846 -0.9063
14673SOL    HW145460   0.903   2.750  10.420 -2.0846 -0.8098 -0.3087
14673SOL    HW245461   0.775   2.760  10.339 -0.3495  0.4880 -3.0475
14674SOL     OW45462   3.710   4.732   3.837 -0.6790 -0.3416  0.4025
14674SOL    HW145463   3.753   4.655   3.800  0.2518 -0.2692  1.2561
14674SOL    HW245464   3.635   4.698   3.885 -0.6730 -0.6417  0.2003
14675SOL     OW45465   6.860   4.739  12.324 -0.9129  0.5516 -0.6192
14675SOL    HW145466   6.872   4.832  12.304  0.0038  0.5598 -0.0595
14675SOL    HW245467   6.767   4.723  12.307 -1.3635  1.8620  0.4183
14676SOL     OW45468   7.574   5.442   0.192 -0.5388  0.0066 -0.1920
14676SOL    HW145469   7.508   5.397   0.244 -1.1973  0.2674 -0.7896
14676SOL    HW245470   7.656   5.398   0.215 -1.1322 -1.3476 -0.5645
14677SOL     OW45471   5.135   2.622   3.915 -0.5065 -0.8077  0.0492
14677SOL    HW145472   5.073   2.557   3.884 -1.6767 -0.4684  1.5419
14677SOL    HW245473   5.085   2.675   3.977  0.1481  2.0606 -1.6982
14678SOL     OW45474   5.839   6.174   4.983  0.1005 -0.4223 -0.2069
14678SOL    HW145475   5.919   6.122   4.994  0.8876  0.9354  0.8119
14678SOL    HW245476   5.842   6.204   4.893  0.3344 -0.9991 -0.3968
14679SOL     OW45477   7.125   4.478   1.206 -0.5378 -0.1893 -0.1428
14679SOL    HW145478   7.141   4.461   1.113  0.0592 -0.0685 -0.0649
14679SOL    HW245479   7.122   4.574   1.212  0.4283 -0.1669  0.1204
14680SOL     OW45480   7.355   6.538   3.858 -0.0455 -0.0762 -0.0905
14680SOL    HW145481   7.283   6.590   3.822 -0.4275 -0.2477  0.4115
14680SOL    HW245482   7.339   6.449   3.825 -0.4957 -0.2703  0.6295
14681SOL     OW45483   3.295   6.355   0.532 -0.5166 -0.1801  0.0683
14681SOL    HW145484   3.363   6.388   0.589  0.5559 -0.5008 -0.9869
14681SOL    HW245485   3.286   6.263   0.555 -1.6060  0.1727  1.1597
14682SOL     OW45486   3.635   7.495  11.590 -0.0879  0.0099  0.0638
14682SOL    HW145487   3.708   7.435  11.608  0.6577  0.5039 -1.2381
14682SOL    HW245488   3.675   7.572  11.550 -1.2600  0.5400 -0.1511
14683SOL     OW45489   5.030   1.646   9.260 -0.3523  0.0801 -0.3788
14683SOL    HW145490   4.942   1.667   9.290 -0.0745 -1.1478  1.5281
14683SOL    HW245491   5.024   1.555   9.230  0.0441  0.3340 -1.2383
14684SOL     OW45492   0.151   0.162  11.435  0.1233 -0.1704  0.4066
14684SOL    HW145493   0.144   0.222  11.509 -0.3686  1.6869 -1.0890
14684SOL    HW245494   0.100   0.085  11.462 -0.9018  0.8869  1.5899
14685SOL     OW45495   0.614   2.645   5.537 -0.6766 -0.1793 -0.3518
14685SOL    HW145496   0.574   2.567   5.575 -1.0907  0.0700 -0.2705
14685SOL    HW245497   0.598   2.637   5.443 -0.1696 -0.5001 -0.4176
14686SOL     OW45498   7.270   5.907   8.446 -0.0596 -0.3368 -0.2507
14686SOL    HW145499   7.335   5.977   8.454 -1.0367  0.6950 -0.9134
14686SOL    HW245500   7.279   5.856   8.526  1.7549 -0.4077 -0.4630
14687SOL     OW45501   4.484   6.742   9.399  0.2675 -0.6671 -0.3140
14687SOL    HW145502   4.466   6.836   9.407  1.5725 -0.4190 -0.1080
14687SOL    HW245503   4.428   6.701   9.465  2.3839  0.3111  2.2582
14688SOL     OW45504   4.917   3.019  10.186 -0.8150  0.1271  0.4744
14688SOL    HW145505   4.934   2.924  10.189  0.3444  0.3351  1.3600
14688SOL    HW245506   4.874   3.037  10.270 -0.9978  0.4034  0.3210
14689SOL     OW45507   6.860   6.882   9.144  0.6772 -0.7216  0.1342
14689SOL    HW145508   6.880   6.974   9.128 -1.2781 -0.4899 -1.4414
14689SOL    HW245509   6.850   6.844   9.056  0.5906 -2.2385  0.7595
14690SOL     OW45510   1.427   5.956   5.132  0.1016 -0.8848 -0.1924
14690SOL    HW145511   1.377   6.038   5.125 -1.5375 -1.7103  1.0271
14690SOL    HW245512   1.507   5.981   5.177 -1.3056 -0.2272  2.1351
14691SOL     OW45513   0.972   4.599   6.225  0.0726 -0.0328 -0.1447
14691SOL    HW145514   1.048   4.615   6.168  0.6999 -0.1700  0.6350
14691SOL    HW245515   0.905   4.566   6.166  1.6607 -3.0915 -0.4315
14692SOL     OW45516   5.019   0.376   1.303  0.4828  0.7838  0.4587
14692SOL    HW145517   4.993   0.290   1.335  2.1381  0.5448  1.3034
14692SOL    HW245518   4.941   0.430   1.311 -0.1218 -0.2080  1.5494
14693SOL     OW45519   7.005   3.323   3.049  0.0671  0.5204  0.0403
14693SOL    HW145520   7.046   3.250   3.002  1.1154  0.8315  0.4434
14693SOL    HW245521   6.944   3.282   3.110  1.1135 -0.0688  0.7208
14694SOL     OW45522   1.283   5.389   4.391 -0.3846  0.4267 -0.2417
14694SOL    HW145523   1.200   5.428   4.363 -0.1070  2.3978  1.4906
14694SOL    HW245524   1.295   5.315   4.331 -2.5710  1.0438 -1.5775
14695SOL     OW45525   5.227   0.226   5.268 -0.0465 -0.0729  0.5575
14695SOL    HW145526   5.256   0.178   5.346 -2.3833  0.3114  1.7451
14695SOL    HW245527   5.181   0.303   5.302 -0.3526  0.5989 -1.2339
14696SOL     OW45528   5.858   2.469   6.498 -0.6232 -0.8095  0.5049
14696SOL    HW145529   5.788   2.534   6.503 -1.1499 -1.3962  0.8891
14696SOL    HW245530   5.834   2.414   6.424  1.9687  1.8509 -2.6470
14697SOL     OW45531   3.939   3.182   0.206  0.1695 -0.2485  0.6603
14697SOL    HW145532   3.950   3.088   0.194  0.6052 -0.1549  0.2942
14697SOL    HW245533   3.845   3.196   0.199  0.0667 -0.7054  1.0694
14698SOL     OW45534   1.979   3.359   0.973  0.4619  0.1530  0.1276
14698SOL    HW145535   1.931   3.329   1.051 -0.2079  1.6481  0.3329
14698SOL    HW245536   2.071   3.360   1.001  0.2921  0.1228  0.7155
14699SOL     OW45537   6.115   0.775  10.085 -0.0324 -0.3474  0.1392
14699SOL    HW145538   6.192   0.797  10.032  0.5714  1.2677  1.6067
14699SOL    HW245539   6.150   0.765  10.174 -1.5000  0.2263  0.7960
14700SOL     OW45540   5.701   4.226   9.222 -0.3724 -0.1002 -0.2949
14700SOL    HW145541   5.729   4.297   9.279  1.1295 -0.4792 -0.5304
14700SOL    HW245542   5.690   4.267   9.136  0.3969 -0.1253 -0.4100
14701SOL     OW45543   7.768   4.056   1.565  0.0107 -0.0927  0.6810
14701SOL    HW145544   7.752   4.135   1.513  0.5539  0.2970  1.0985
14701SOL    HW245545   7.823   4.002   1.509  2.2426  1.1589  1.5521
14702SOL     OW45546   6.416   1.186   5.250 -0.8186 -0.0730  1.0113
14702SOL    HW145547   6.401   1.180   5.345  1.0766  1.2853  1.4479
14702SOL    HW245548   6.510   1.197   5.241 -0.7254 -1.8775 -1.1740
14703SOL     OW45549   4.250   4.855   4.394 -0.1350  0.0182 -0.0650
14703SOL    HW145550   4.242   4.795   4.468 -0.5203  0.8071  0.5608
14703SOL    HW245551   4.194   4.929   4.418 -1.3634 -0.2955 -1.7580
14704SOL     OW45552   4.612   1.935   3.725 -0.1707 -0.2179 -0.0323
14704SOL    HW145553   4.653   1.923   3.810  0.1899 -0.3426 -0.2219
14704SOL    HW245554   4.564   1.853   3.710  1.2332 -0.9444 -0.7451
14705SOL     OW45555   2.770   7.329  11.545  0.1941  0.7273 -0.4036
14705SOL    HW145556   2.815   7.245  11.560  0.7393  1.1319  0.2898
14705SOL    HW245557   2.700   7.330  11.611 -0.9573  0.0479 -1.5491
14706SOL     OW45558   6.108   3.337   7.450 -0.0088  0.0484  0.2199
14706SOL    HW145559   6.065   3.352   7.534  0.1224  2.7018 -0.1174
14706SOL    HW245560   6.040   3.356   7.385  0.0715 -1.3716 -0.3145
14707SOL     OW45561   3.881   4.152   7.315  0.2503 -0.3223 -0.0881
14707SOL    HW145562   3.814   4.154   7.246 -0.3585 -0.0871  0.4980
14707SOL    HW245563   3.875   4.064   7.351 -1.7563  0.5297  1.8713
14708SOL     OW45564   1.014   3.309   5.932  0.0182  0.6357  0.4720
14708SOL    HW145565   0.937   3.308   5.876 -0.3850  0.9587  1.0138
14708SOL    HW245566   1.087   3.290   5.873 -0.4097  0.8798 -0.1428
14709SOL     OW45567   2.498   2.656   2.222 -0.1441  0.2532 -0.1293
14709SOL    HW145568   2.430   2.697   2.275 -0.6363 -0.5998 -0.0797
14709SOL    HW245569   2.520   2.722   2.156 -1.8388  0.1623 -0.8586
14710SOL     OW45570   7.227   0.443   6.540 -0.2026  0.3908  0.0361
14710SOL    HW145571   7.320   0.426   6.527  0.0690  0.8994  1.1841
14710SOL    HW245572   7.185   0.358   6.528  0.6829 -0.3607  1.8688
14711SOL     OW45573   0.802   7.849   3.848  0.0173  0.0911 -0.1259
14711SOL    HW145574   0.845   7.934   3.838  2.6389 -1.1315  0.1126
14711SOL    HW245575   0.796   7.837   3.943  2.6888 -1.3331 -0.0504
14712SOL     OW45576   1.311   4.820   5.839  0.2015 -0.3606 -0.3066
14712SOL    HW145577   1.284   4.776   5.759 -0.2707 -0.1848 -0.2463
14712SOL    HW245578   1.264   4.903   5.838 -1.0625 -1.0187  0.9289
14713SOL     OW45579   4.687   2.038   3.484 -0.2493 -0.9694 -0.3758
14713SOL    HW145580   4.655   1.981   3.554 -0.3150  0.1031  0.4901
14713SOL    HW245581   4.670   1.989   3.404 -2.4919 -1.1808  0.1606
14714SOL     OW45582   0.497   2.448   3.911  0.0432 -0.3187  0.1457
14714SOL    HW145583   0.478   2.531   3.954 -0.6487 -0.7595  0.7186
14714SOL    HW245584   0.430   2.439   3.843 -1.2639 -1.3991  1.5067
14715SOL     OW45585   6.553   0.471  11.585  0.0249  0.0392  0.0342
14715SOL    HW145586   6.501   0.474  11.505  1.4448  0.6083 -0.9155
14715SOL    HW245587   6.588   0.382  11.587 -0.0382  0.0144  0.0482
14716SOL     OW45588   5.971   0.859   2.987 -0.0830  0.0487 -0.2719
14716SOL    HW145589   6.046   0.917   2.973  0.1986 -0.8186 -2.7089
14716SOL    HW245590   6.009   0.771   2.991 -0.8469 -0.2810  0.0122
14717SOL     OW45591   5.031   7.489   6.689  0.4263 -0.4425  0.1860
14717SOL    HW145592   5.109   7.455   6.733  0.1981 -2.4175 -0.8146
14717SOL    HW245593   4.958   7.465   6.747  0.3889 -0.1839  0.2503
14718SOL     OW45594   3.120   4.382  12.102 -0.2476  0.3021  0.0016
14718SOL    HW145595   3.065   4.459  12.092 -0.5011  0.0356 -0.7631
14718SOL    HW245596   3.065   4.318  12.147  0.0377  0.6358  0.8394
14719SOL     OW45597   0.850   1.268   7.569  0.4006  0.1996  0.0667
14719SOL    HW145598   0.845   1.216   7.650  0.3994  0.6016  0.3267
14719SOL    HW245599   0.939   1.251   7.536  0.7072  0.7206  0.6171
14720SOL     OW45600   3.390   1.065   2.139  0.4849  0.3077 -0.0001
14720SOL    HW145601   3.355   1.051   2.052  2.4296 -1.8468 -0.5239
14720SOL    HW245602   3.333   1.133   2.177 -1.2637  0.3039 -2.3817
14721SOL     OW45603   1.828   6.824   5.978 -0.6511  0.2291 -0.1185
14721SOL    HW145604   1.859   6.895   6.034 -0.2628 -0.3151  0.3588
14721SOL    HW245605   1.889   6.823   5.904 -1.1340  0.9129 -0.5474
14722SOL     OW45606   1.016   5.636   0.132  0.2901  0.0011 -0.2845
14722SOL    HW145607   0.996   5.643   0.039 -1.6611 -2.6122 -0.1716
14722SOL    HW245608   0.955   5.697   0.174  1.3219  1.3481 -0.6561
14723SOL     OW45609   6.869   1.699   6.355 -0.8149 -0.2624  0.0104
14723SOL    HW145610   6.801   1.715   6.420  0.6522 -0.1407  1.5713
14723SOL    HW245611   6.848   1.760   6.284 -1.5409  0.7519  1.0603
14724SOL     OW45612   6.418   4.696   8.771 -0.0478  0.3194 -0.2161
14724SOL    HW145613   6.474   4.766   8.804  0.3359 -0.4600  0.8465
14724SOL    HW245614   6.341   4.742   8.735  0.0648  1.2775  0.7043
14725SOL     OW45615   2.050   5.285   8.794 -0.3397 -0.3849 -0.3851
14725SOL    HW145616   2.091   5.300   8.709  2.3983  1.1854  1.0700
14725SOL    HW245617   2.074   5.195   8.818  0.7168 -0.1094 -0.3756
14726SOL     OW45618   5.456   4.510  12.312  0.3597  0.2773 -0.2698
14726SOL    HW145619   5.414   4.424  12.312  1.7484 -0.4585 -2.1842
14726SOL    HW245620   5.383   4.572  12.301 -0.5802 -0.6894  0.2908
14727SOL     OW45621   3.145   3.966   8.301 -0.1459 -0.1110 -0.0401
14727SOL    HW145622   3.128   3.884   8.349  0.3940 -0.9149 -1.1796
14727SOL    HW245623   3.241   3.971   8.296 -0.1969 -0.2275 -1.3245
14728SOL     OW45624   6.731   7.896   9.340 -0.1823 -0.1747 -0.2511
14728SOL    HW145625   6.747   7.968   9.278 -0.9932  0.3915  0.1770
14728SOL    HW245626   6.636   7.885   9.339  0.0227 -3.2546 -2.5525
14729SOL     OW45627   6.741   1.251   7.645  0.3681  0.4066 -0.0080
14729SOL    HW145628   6.668   1.309   7.665  0.6608  1.4900 -1.8483
14729SOL    HW245629   6.819   1.303   7.659  0.9066 -0.9303  2.5417
14730SOL     OW45630   0.553   1.446   6.208 -0.2186 -0.5972  0.0688
14730SOL    HW145631   0.486   1.398   6.257 -0.6521 -0.0892 -0.0101
14730SOL    HW245632   0.631   1.390   6.212 -1.0277 -1.8547 -1.0108
14731SOL     OW45633   5.242   4.481   9.123 -0.1224 -0.1910  0.2075
14731SOL    HW145634   5.156   4.488   9.081 -0.7445 -2.1398  1.0096
14731SOL    HW245635   5.266   4.389   9.112  1.6746  0.2272  0.4053
14732SOL     OW45636   0.049   4.420   9.591  0.4801 -0.4359  0.7765
14732SOL    HW145637  -0.001   4.422   9.673  0.2791 -1.0710  0.6755
14732SOL    HW245638   0.069   4.512   9.573 -2.0371  0.0433 -0.0297
14733SOL     OW45639   3.590   5.733   1.781 -0.3077  0.1529 -0.3421
14733SOL    HW145640   3.675   5.726   1.737 -0.8110  0.1837 -1.3412
14733SOL    HW245641   3.581   5.650   1.829  0.2449  0.1167 -0.2896
14734SOL     OW45642   7.886   2.603  10.320 -0.3301 -0.6912  0.0188
14734SOL    HW145643   7.933   2.562  10.392  0.3519 -0.6368 -0.3906
14734SOL    HW245644   7.852   2.685  10.357  0.3561 -0.4688  0.1694
14735SOL     OW45645   3.809   1.365   6.461  0.2060  0.5611  0.0357
14735SOL    HW145646   3.832   1.277   6.492 -0.6057 -0.3059 -1.6847
14735SOL    HW245647   3.893   1.410   6.450  0.5727  0.5919  2.4218
14736SOL     OW45648   4.165   1.440   9.279  0.0144  0.1805  0.1310
14736SOL    HW145649   4.192   1.474   9.194 -0.1017  2.2540  0.8716
14736SOL    HW245650   4.205   1.353   9.283  1.5136  0.7431 -1.2982
14737SOL     OW45651   4.272   7.968  10.123  0.2321  0.0193  0.0040
14737SOL    HW145652   4.207   7.901  10.102  1.1378 -1.1506  0.8486
14737SOL    HW245653   4.315   7.986  10.039  1.1125 -1.6970  0.0480
14738SOL     OW45654   7.135   6.406   2.382 -0.2138 -0.1453  0.1684
14738SOL    HW145655   7.113   6.321   2.421 -1.9430  0.1028 -0.1928
14738SOL    HW245656   7.127   6.393   2.288  2.3135 -0.2984 -0.0676
14739SOL     OW45657   7.212   7.044   8.228  0.0905  0.0275  0.1309
14739SOL    HW145658   7.295   6.998   8.217  0.8602  0.6167  2.6920
14739SOL    HW245659   7.229   7.106   8.299 -2.4973  0.2600  0.6247
14740SOL     OW45660   6.015   5.769   9.371 -0.3644 -0.1890  0.2122
14740SOL    HW145661   6.106   5.778   9.341 -0.8139  0.7409 -0.9160
14740SOL    HW245662   6.006   5.675   9.389  0.8467 -0.2818  0.4639
14741SOL     OW45663   1.765   5.080   3.821 -0.0420 -0.6250 -0.3366
14741SOL    HW145664   1.787   5.000   3.774  1.9010 -1.6146  1.9942
14741SOL    HW245665   1.682   5.060   3.864  1.3440 -2.2849  1.8058
14742SOL     OW45666   4.588   7.217   0.956  0.6498  0.3005  0.1767
14742SOL    HW145667   4.575   7.172   1.040 -0.5447 -1.2980 -0.8236
14742SOL    HW245668   4.543   7.300   0.967  0.4710  0.0945  1.1071
14743SOL     OW45669   0.563   5.167   8.612  0.1923 -0.9564  0.1365
14743SOL    HW145670   0.500   5.209   8.671  1.4445 -0.6769  1.3285
14743SOL    HW245671   0.512   5.099   8.568 -1.1216 -0.2449  0.4812
14744SOL     OW45672   1.815   7.417   8.751  0.5358  0.3711  0.5254
14744SOL    HW145673   1.863   7.384   8.827 -2.9530 -0.8750  2.4061
14744SOL    HW245674   1.824   7.349   8.685  0.2175 -0.5320  1.3885
14745SOL     OW45675   0.844   0.634   1.908  0.1767  0.5224 -0.2597
14745SOL    HW145676   0.803   0.551   1.886 -0.2731  0.5354  0.4976
14745SOL    HW245677   0.830   0.690   1.832  0.6090 -0.1362 -0.8313
14746SOL     OW45678   1.538   3.478   5.453  0.2271 -0.2128 -0.0391
14746SOL    HW145679   1.451   3.517   5.459  0.5661  0.3706  1.7084
14746SOL    HW245680   1.559   3.481   5.359 -1.0928  0.8145 -0.3353
14747SOL     OW45681   0.730   2.618   3.179 -0.7501  0.9541 -0.1789
14747SOL    HW145682   0.774   2.595   3.261 -1.1932 -1.7426 -0.6043
14747SOL    HW245683   0.670   2.689   3.202  0.8137  1.8498  1.2907
14748SOL     OW45684   5.498   6.120  10.106  0.2290  0.1817 -0.4142
14748SOL    HW145685   5.532   6.192  10.052  3.1312 -1.7178 -1.3322
14748SOL    HW245686   5.493   6.045  10.048 -0.7860 -0.9073  0.9895
14749SOL     OW45687   2.511   2.773   9.960 -0.3881 -0.0638 -0.2834
14749SOL    HW145688   2.525   2.860   9.995  0.7396 -0.7080  0.9470
14749SOL    HW245689   2.438   2.737  10.011 -0.5715 -0.0055 -0.5003
14750SOL     OW45690   4.139   1.770   3.485 -0.0048 -0.4114 -0.6801
14750SOL    HW145691   4.175   1.729   3.563  0.1977 -0.8709 -1.0056
14750SOL    HW245692   4.211   1.819   3.447 -0.1472 -0.0546 -0.4911
14751SOL     OW45693   5.629   0.426   8.508  0.2448 -0.2091  0.0891
14751SOL    HW145694   5.599   0.498   8.563 -1.2492 -1.2333  0.6731
14751SOL    HW245695   5.616   0.347   8.561 -0.2850 -1.1371 -1.3372
14752SOL     OW45696   0.090   4.668   9.959  0.2440  0.1413  0.4618
14752SOL    HW145697   0.183   4.675   9.982  0.2875  1.8453 -0.1090
14752SOL    HW245698   0.053   4.753   9.982 -1.1372 -0.4290  0.4413
14753SOL     OW45699   2.120   7.164   1.755  0.2134 -0.4710 -0.8575
14753SOL    HW145700   2.162   7.079   1.766  1.0638  0.0035 -0.2573
14753SOL    HW245701   2.027   7.145   1.753  0.3789 -1.3819 -0.3559
14754SOL     OW45702   0.445   3.263  11.067 -0.0201  0.2431 -0.0285
14754SOL    HW145703   0.526   3.215  11.052  0.1411 -0.0886  1.7339
14754SOL    HW245704   0.391   3.204  11.119 -1.1175  0.7474 -0.5542
14755SOL     OW45705   4.497   0.552   1.031 -0.0476 -0.0913  0.4767
14755SOL    HW145706   4.499   0.577   1.123 -0.0055 -0.5316  0.5988
14755SOL    HW245707   4.443   0.472   1.029  2.5899 -1.9920  0.6104
14756SOL     OW45708   0.027   3.125   2.169  0.0700  0.8277 -0.1260
14756SOL    HW145709   0.046   3.217   2.148 -1.6508  1.0807 -0.7083
14756SOL    HW245710   0.054   3.116   2.260 -0.7460  2.2203  0.2852
14757SOL     OW45711   1.563   4.923   5.821  0.3446  0.6592 -0.4312
14757SOL    HW145712   1.610   4.839   5.831 -0.0967  0.6139  1.8142
14757SOL    HW245713   1.482   4.911   5.869  0.4899  2.5289  0.3702
14758SOL     OW45714   3.777   2.361   9.423 -0.2547  0.7242  0.3430
14758SOL    HW145715   3.824   2.444   9.430  0.0562  0.4807  1.2570
14758SOL    HW245716   3.841   2.295   9.447 -0.9434  0.3516  1.1888
14759SOL     OW45717   6.304   7.183   5.188 -0.0128 -0.1956 -0.4451
14759SOL    HW145718   6.289   7.276   5.207  0.5923 -0.0622 -0.5991
14759SOL    HW245719   6.399   7.173   5.188 -0.0127 -0.4541 -2.1148
14760SOL     OW45720   0.124   3.112   3.784  0.2219  0.1870 -0.2476
14760SOL    HW145721   0.043   3.064   3.797 -0.0870  1.0563  1.2366
14760SOL    HW245722   0.159   3.126   3.872  1.1837  1.1746 -0.7517
14761SOL     OW45723   4.247   5.384  12.384 -0.2552 -0.0348 -0.8292
14761SOL    HW145724   4.331   5.340  12.375 -0.5565 -0.6213 -0.8148
14761SOL    HW245725   4.268   5.467  12.427  0.0391 -1.1686  1.3522
14762SOL     OW45726   2.055   2.431   6.970 -0.0496  0.0245 -0.5116
14762SOL    HW145727   2.065   2.358   6.909 -0.9492  0.4372 -1.1856
14762SOL    HW245728   1.976   2.476   6.940 -1.3722 -0.5950  1.8254
14763SOL     OW45729   4.226   4.139   4.398 -0.2307  0.4772 -0.3812
14763SOL    HW145730   4.239   4.078   4.471  1.7402  1.8907  0.5312
14763SOL    HW245731   4.218   4.225   4.439 -1.7907  1.0287 -1.7105
14764SOL     OW45732   7.522   1.515   7.543  0.4145  0.2283 -0.0196
14764SOL    HW145733   7.584   1.525   7.471  1.3513 -1.2554  0.5365
14764SOL    HW245734   7.567   1.459   7.606  0.2154  2.6108  2.4264
14765SOL     OW45735   5.774   7.881   3.732 -0.0333  0.5132  0.0080
14765SOL    HW145736   5.738   7.925   3.809 -2.9788 -1.1096 -0.3075
14765SOL    HW245737   5.762   7.788   3.750  0.2995  0.0619 -1.9293
14766SOL     OW45738   2.551   4.131   9.221 -0.2453  0.5055  0.2456
14766SOL    HW145739   2.620   4.197   9.212 -0.0817  0.3372  0.2840
14766SOL    HW245740   2.499   4.162   9.296 -1.8112  2.0981 -1.3857
14767SOL     OW45741   2.573   0.877   2.715 -0.0196  0.7079 -0.0017
14767SOL    HW145742   2.630   0.946   2.681  0.9790 -0.2428 -0.3326
14767SOL    HW245743   2.487   0.896   2.679  0.6440  0.7410 -1.6375
14768SOL     OW45744   4.657   3.770  10.231 -0.2652 -0.1228 -0.3324
14768SOL    HW145745   4.597   3.781  10.305  0.5321 -0.4548  0.3812
14768SOL    HW245746   4.663   3.857  10.192  0.8753  0.5400  1.2354
14769SOL     OW45747   7.711   6.150  11.057 -0.0997 -0.0226 -0.2832
14769SOL    HW145748   7.719   6.100  10.976 -0.4882 -0.8917  0.2006
14769SOL    HW245749   7.753   6.234  11.038  1.0981 -0.7383 -0.9346
14770SOL     OW45750   4.477   4.153   6.882  0.3448  0.4062 -0.1634
14770SOL    HW145751   4.427   4.073   6.867  0.0348  0.7523 -0.9718
14770SOL    HW245752   4.560   4.122   6.919  0.0372 -0.2517 -0.0116
14771SOL     OW45753   4.857   0.815  12.046  0.1834 -0.6384  0.2338
14771SOL    HW145754   4.936   0.868  12.051 -0.5222  0.5642 -0.7962
14771SOL    HW245755   4.786   0.875  12.070 -0.5169 -1.4658  0.2973
14772SOL     OW45756   4.020   6.226   2.658  0.6597 -0.2715  0.4891
14772SOL    HW145757   3.994   6.156   2.597 -1.0720 -1.0982  2.0906
14772SOL    HW245758   3.973   6.303   2.626  1.5928 -0.1048 -0.5500
14773SOL     OW45759   7.519   1.348  11.427  0.0713  0.4999  0.3525
14773SOL    HW145760   7.614   1.350  11.428  0.1302  0.3918 -1.7323
14773SOL    HW245761   7.493   1.439  11.440  0.5494  0.9337 -1.4656
14774SOL     OW45762   3.799   7.815   7.108  0.6284  0.0148 -0.3017
14774SOL    HW145763   3.799   7.902   7.068  0.5670  0.0952 -0.1298
14774SOL    HW245764   3.890   7.786   7.102  0.4841 -0.2916 -1.1797
14775SOL     OW45765   6.475   5.252   1.602  0.1068  0.3261  0.4232
14775SOL    HW145766   6.403   5.284   1.547 -0.1631  1.1459  1.2265
14775SOL    HW245767   6.457   5.288   1.688  1.5225  0.6204  0.6238
14776SOL     OW45768   1.424   6.203  10.242  0.4816  0.0615  0.0606
14776SOL    HW145769   1.499   6.190  10.184 -0.4420  0.0360 -1.1849
14776SOL    HW245770   1.411   6.119  10.284 -0.0987 -0.5841 -1.3234
14777SOL     OW45771   5.331   2.934  10.083 -0.0438 -0.1849  0.3375
14777SOL    HW145772   5.301   2.997  10.017 -0.1552 -0.4909  0.0913
14777SOL    HW245773   5.360   2.858  10.032 -0.7153 -0.6683  0.6578
14778SOL     OW45774   1.819   1.119   4.313 -0.0099 -0.3683  0.1557
14778SOL    HW145775   1.856   1.152   4.231 -2.4024  0.3700 -0.7015
14778SOL    HW245776   1.877   1.154   4.381  2.6234 -1.8179 -1.1842
14779SOL     OW45777   4.736   6.316  10.384  0.3872  0.2808  0.4803
14779SOL    HW145778   4.672   6.246  10.398  0.5422  0.5347  2.9298
14779SOL    HW245779   4.743   6.359  10.469  2.1734  1.6910 -0.3142
14780SOL     OW45780   1.980   3.011  10.790 -0.6861 -0.4952  0.4490
14780SOL    HW145781   1.912   3.078  10.781 -0.5927  0.0888  3.2058
14780SOL    HW245782   1.962   2.970  10.874  2.7580  0.2005  1.6668
14781SOL     OW45783   1.087   0.413  10.357 -0.6636 -0.2771 -0.6477
14781SOL    HW145784   1.150   0.384  10.291 -0.6549  0.5646 -1.0126
14781SOL    HW245785   1.013   0.446  10.306 -2.1560 -2.7399 -0.2622
14782SOL     OW45786   5.968   4.213   5.844  0.6388 -0.7808 -0.3232
14782SOL    HW145787   5.954   4.284   5.781  0.0260 -0.2391  0.4160
14782SOL    HW245788   5.910   4.143   5.813 -0.7724  0.0094  0.4387
14783SOL     OW45789   1.588   4.740  11.107 -0.6667 -0.6043 -0.1012
14783SOL    HW145790   1.680   4.716  11.113 -1.2936 -3.0010  1.8694
14783SOL    HW245791   1.565   4.772  11.194 -1.6703  0.0937 -0.6018
14784SOL     OW45792   3.335   5.050  10.087  0.1115  0.5129 -0.1685
14784SOL    HW145793   3.370   4.963  10.064 -0.8911 -0.1612  0.7645
14784SOL    HW245794   3.405   5.091  10.138  1.9807  1.6402 -3.2997
14785SOL     OW45795   2.536   1.047   7.045  0.0390 -0.1635  0.5436
14785SOL    HW145796   2.593   0.979   7.080 -1.0499 -0.9973  0.7761
14785SOL    HW245797   2.463   0.999   7.006 -1.7198  0.8506  2.3677
14786SOL     OW45798   4.801   0.741   7.304  0.0975  0.1992  0.0230
14786SOL    HW145799   4.798   0.709   7.394  1.7340 -1.1628 -0.3746
14786SOL    HW245800   4.851   0.823   7.309 -1.1593  0.9741  0.5346
14787SOL     OW45801   1.327   3.310   9.221  0.1112  0.6680  0.4050
14787SOL    HW145802   1.244   3.354   9.239 -0.4583 -0.9185  1.9002
14787SOL    HW245803   1.365   3.295   9.308  0.9112 -0.5981 -0.1402
14788SOL     OW45804   0.832   1.345  10.019  0.5133  0.2045  0.0301
14788SOL    HW145805   0.855   1.438  10.027  2.0227 -0.2654  1.5311
14788SOL    HW245806   0.758   1.334  10.078 -0.7473  0.7436 -1.3672
14789SOL     OW45807   1.234   2.410   8.873  0.6618 -0.3777  0.0508
14789SOL    HW145808   1.151   2.443   8.839  0.1686 -1.1550  0.4612
14789SOL    HW245809   1.216   2.390   8.965  1.2209 -0.8217  0.0716
14790SOL     OW45810   7.182   5.946   7.951 -0.1556 -0.2586 -0.1477
14790SOL    HW145811   7.158   6.035   7.978  1.3862  0.2221 -0.2474
14790SOL    HW245812   7.195   5.952   7.857 -2.9200 -1.3263 -0.7054
14791SOL     OW45813   3.474   3.966   1.390 -0.0358  0.0020 -0.2029
14791SOL    HW145814   3.561   3.967   1.349  1.6499  0.9360  3.0059
14791SOL    HW245815   3.474   3.886   1.443 -3.1295 -2.5585 -3.5827
14792SOL     OW45816   4.895   3.513   4.651 -0.0620  0.0958  0.1139
14792SOL    HW145817   4.895   3.596   4.604 -2.0888 -0.1976 -0.5013
14792SOL    HW245818   4.960   3.459   4.606  0.5880  1.0245 -0.0758
14793SOL     OW45819   3.681   2.127  10.815 -0.1498 -0.2206 -0.5468
14793SOL    HW145820   3.716   2.157  10.899  0.1296  0.3243 -0.8567
14793SOL    HW245821   3.589   2.152  10.817 -0.0454  0.1637 -0.5773
14794SOL     OW45822   0.420   6.501   5.586 -0.3027  0.3850  0.4520
14794SOL    HW145823   0.374   6.559   5.645 -0.0538  0.9570  0.0890
14794SOL    HW245824   0.352   6.459   5.534 -0.4840  0.2961  0.7591
14795SOL     OW45825   7.930   3.778   9.414 -0.0819  0.1180  0.1811
14795SOL    HW145826   7.930   3.855   9.358  1.2619  0.0805  0.0969
14795SOL    HW245827   7.910   3.812   9.502  0.9289  0.6340  0.2206
14796SOL     OW45828   2.033   7.725   3.790  0.8667 -0.2766 -0.4634
14796SOL    HW145829   2.090   7.776   3.849  2.2098 -2.1944  0.0061
14796SOL    HW245830   2.020   7.782   3.715 -1.1498  2.4187  1.7130
14797SOL     OW45831   5.751   4.938   7.600  0.0437  0.1236 -0.1631
14797SOL    HW145832   5.751   4.854   7.646  1.8918  1.0498  1.7004
14797SOL    HW245833   5.844   4.957   7.586 -0.3223  1.9586 -0.3352
14798SOL     OW45834   6.320   6.928   1.076  0.2496 -0.3600 -0.7361
14798SOL    HW145835   6.371   6.849   1.057  1.2320 -0.2648  1.2708
14798SOL    HW245836   6.373   6.976   1.138 -0.2029  2.0828 -2.1265
14799SOL     OW45837   0.868   5.953  11.504  0.0905  0.5551 -0.1000
14799SOL    HW145838   0.794   6.004  11.538 -0.1365  1.9276 -2.4295
14799SOL    HW245839   0.943   5.983  11.555 -0.5233  0.9991  0.5770
14800SOL     OW45840   7.119   0.836   5.199  0.3544  0.4502 -0.0596
14800SOL    HW145841   7.193   0.817   5.142 -1.1666 -1.2485 -1.6259
14800SOL    HW245842   7.064   0.895   5.148 -1.1245 -1.2472 -0.5691
14801SOL     OW45843   4.800   6.881   5.307 -0.6241  0.2496 -0.0646
14801SOL    HW145844   4.868   6.916   5.250  0.9701 -1.2119  0.8692
14801SOL    HW245845   4.822   6.913   5.394 -1.9492  0.8755  0.0768
14802SOL     OW45846   1.033   6.880  11.913  0.1291 -0.2081  0.1801
14802SOL    HW145847   1.025   6.953  11.852  1.3393  0.8301  1.1718
14802SOL    HW245848   0.956   6.827  11.899 -1.4382  1.9251  0.2352
14803SOL     OW45849   6.512   1.140   6.511 -0.5078 -0.3331  0.0569
14803SOL    HW145850   6.437   1.092   6.544 -1.0257  1.5739  1.8232
14803SOL    HW245851   6.581   1.125   6.576 -0.5378  0.8963  0.3857
14804SOL     OW45852   0.289   5.244   0.046  0.1408 -0.2924  0.0757
14804SOL    HW145853   0.225   5.253  -0.025  0.1324  0.3592  0.1611
14804SOL    HW245854   0.337   5.327   0.045  0.8600 -0.7060  0.1392
14805SOL     OW45855   4.463   1.366   0.127  0.5718  0.3721  0.0583
14805SOL    HW145856   4.412   1.319   0.193  0.4295 -1.5376 -1.3350
14805SOL    HW245857   4.399   1.421   0.082  0.4860  0.9213  0.8401
14806SOL     OW45858   2.028   2.675   5.536 -0.0811  0.2259 -0.0024
14806SOL    HW145859   2.019   2.629   5.453 -1.7870  1.4646 -0.5614
14806SOL    HW245860   2.073   2.613   5.593 -0.6910 -1.4246 -1.2440
14807SOL     OW45861   2.148   4.593   8.010  0.5784  0.2096 -0.0983
14807SOL    HW145862   2.192   4.568   8.091  0.5989 -0.9056 -0.4294
14807SOL    HW245863   2.099   4.515   7.984 -0.5673  1.0035 -0.4209
14808SOL     OW45864   4.115   4.289   4.817 -0.1451 -0.2299  0.3568
14808SOL    HW145865   4.028   4.325   4.838 -0.0841  1.0479 -1.3836
14808SOL    HW245866   4.096   4.209   4.768 -0.3592  0.2428 -0.3430
14809SOL     OW45867   0.357   3.208   4.450 -0.0774 -0.5571 -0.3371
14809SOL    HW145868   0.350   3.183   4.542 -0.0641 -0.4251 -0.3000
14809SOL    HW245869   0.270   3.239   4.426 -0.4058 -1.7166 -0.7037
14810SOL     OW45870   4.522   6.453   2.496 -0.0764  0.5197  0.0559
14810SOL    HW145871   4.435   6.421   2.474  0.4833 -0.7700 -0.3628
14810SOL    HW245872   4.523   6.455   2.592 -0.5130  0.4090  0.0638
14811SOL     OW45873   7.698   6.236   0.017 -0.2552  0.7726  0.5887
14811SOL    HW145874   7.768   6.298  -0.005  0.0699  0.4847  0.8179
14811SOL    HW245875   7.718   6.159  -0.036 -0.2161  0.5677  0.9061
14812SOL     OW45876   4.713   6.196   9.763  0.1152 -0.5264 -0.1734
14812SOL    HW145877   4.637   6.245   9.796 -0.0457 -0.2747 -0.8874
14812SOL    HW245878   4.756   6.163   9.841 -0.1772  0.1665  0.2920
14813SOL     OW45879   5.693   6.186   1.452  0.4087  0.3975 -0.1582
14813SOL    HW145880   5.627   6.191   1.382 -0.3449  0.7800  0.5516
14813SOL    HW245881   5.768   6.233   1.417  0.0941  0.4602 -0.7713
14814SOL     OW45882   5.773   2.988  12.339 -0.1879 -0.3074  0.5467
14814SOL    HW145883   5.745   2.988  12.247 -0.9112 -0.6226  0.7546
14814SOL    HW245884   5.691   2.993  12.389  0.2295  0.7674  1.1770
14815SOL     OW45885   6.370   3.999   6.900 -0.0911 -0.2044  0.6194
14815SOL    HW145886   6.349   3.992   6.993 -1.2903  1.0954  0.4887
14815SOL    HW245887   6.439   4.065   6.896  1.1178 -1.4297  0.6958
14816SOL     OW45888   0.335   2.833  11.701 -0.4050 -0.2377 -0.2148
14816SOL    HW145889   0.416   2.878  11.726 -0.2320 -0.7898  0.2527
14816SOL    HW245890   0.362   2.770  11.634 -0.5502 -0.0104 -0.4850
14817SOL     OW45891   0.831   2.330   2.245  0.2182  0.7121 -0.1555
14817SOL    HW145892   0.829   2.238   2.273 -0.2018  0.7031 -0.2014
14817SOL    HW245893   0.907   2.336   2.187  0.0820  0.3223 -0.3800
14818SOL     OW45894   7.006   1.690  10.647 -0.1342 -0.0757  0.6101
14818SOL    HW145895   6.950   1.714  10.721  0.8532  0.1583  1.3085
14818SOL    HW245896   6.978   1.748  10.576 -0.3914  0.4323  1.1157
14819SOL     OW45897   6.236   6.009   4.745  0.9229  0.3544  0.2878
14819SOL    HW145898   6.319   5.966   4.728  0.8920  0.1481  0.6689
14819SOL    HW245899   6.226   6.007   4.840  1.6993  2.6471  0.4730
14820SOL     OW45900   5.128   4.452  11.222  0.0702 -0.0983 -0.1671
14820SOL    HW145901   5.079   4.470  11.141  1.0340  0.1168 -0.7131
14820SOL    HW245902   5.083   4.376  11.260 -0.0857 -0.5277 -1.1638
14821SOL     OW45903   0.646   0.575  11.110  0.4832 -0.2501  0.4685
14821SOL    HW145904   0.561   0.606  11.077  0.8786 -0.6651 -1.0291
14821SOL    HW245905   0.644   0.481  11.095  0.3734 -0.5999  2.4671
14822SOL     OW45906   5.192   5.292  12.182  0.5397  0.1893  0.2140
14822SOL    HW145907   5.231   5.379  12.191 -0.1910  0.3844  1.8496
14822SOL    HW245908   5.122   5.303  12.119  1.1656  0.5286 -0.4278
14823SOL     OW45909   1.564   7.742   0.162  0.0857 -0.3214 -0.0949
14823SOL    HW145910   1.592   7.746   0.254 -0.7298  1.7996  0.1273
14823SOL    HW245911   1.628   7.795   0.115  1.4070 -2.6353 -1.0937
14824SOL     OW45912   7.138   1.735   1.072 -0.0902  0.1962  0.1345
14824SOL    HW145913   7.137   1.812   1.015  3.5291  0.5725  0.3324
14824SOL    HW245914   7.124   1.661   1.013 -0.4275  0.8237 -0.5824
14825SOL     OW45915   0.106   2.235   4.311 -0.0683 -0.5588 -0.0159
14825SOL    HW145916   0.129   2.306   4.371  0.1221  0.2226 -0.9920
14825SOL    HW245917   0.045   2.181   4.361 -0.1875  0.2706  0.7623
14826SOL     OW45918   5.808   5.494   5.151 -0.3517  0.0143 -0.0095
14826SOL    HW145919   5.761   5.416   5.123  0.0855 -0.6364  1.0080
14826SOL    HW245920   5.893   5.462   5.181  0.1638  0.9843 -0.3726
14827SOL     OW45921   3.235   1.329   6.967 -0.6158  0.4856  0.8146
14827SOL    HW145922   3.268   1.303   7.053 -0.1770  1.5692  0.9912
14827SOL    HW245923   3.159   1.272   6.952  0.3964 -0.9705  1.0856
14828SOL     OW45924   6.667   0.265   1.358  0.0220  0.5063 -0.8347
14828SOL    HW145925   6.699   0.197   1.299 -0.1140 -0.6253  0.3668
14828SOL    HW245926   6.743   0.289   1.411 -0.4591 -0.4009  0.3186
14829SOL     OW45927   2.042   2.964  11.464 -0.2959 -0.0355  0.6839
14829SOL    HW145928   2.040   3.054  11.496  0.4241  0.5086 -0.7519
14829SOL    HW245929   2.100   2.918  11.526  0.7176  0.8899  0.4467
14830SOL     OW45930   7.178   0.231   7.964 -0.6010  0.3082 -0.1948
14830SOL    HW145931   7.084   0.235   7.946 -0.4801  1.0304 -0.7027
14830SOL    HW245932   7.218   0.280   7.892  0.4495 -3.0394 -2.1151
14831SOL     OW45933   5.938   5.478   4.134  0.3626  0.6331  0.5772
14831SOL    HW145934   5.953   5.479   4.039  0.9286 -1.3820  0.5959
14831SOL    HW245935   5.960   5.389   4.161 -0.4864  0.9459  2.5062
14832SOL     OW45936   1.262   2.688   3.374 -0.1318  0.1322  0.0761
14832SOL    HW145937   1.209   2.675   3.453  0.7651 -0.4612  0.5894
14832SOL    HW245938   1.278   2.599   3.341  0.4898  0.3076 -0.1069
14833SOL     OW45939   7.485   7.097   1.980 -0.1927  0.0584 -0.7944
14833SOL    HW145940   7.496   7.071   2.072 -1.8449 -0.6342 -0.7480
14833SOL    HW245941   7.574   7.100   1.945  0.5771  1.4035  1.0958
14834SOL     OW45942   6.583   4.962   4.982 -0.5321 -0.5727  0.1278
14834SOL    HW145943   6.598   4.916   5.064 -0.9595 -0.9611 -0.0115
14834SOL    HW245944   6.656   4.936   4.926  0.5404  0.7602  0.8249
14835SOL     OW45945   1.148   0.064   5.437 -0.0142 -0.2132  0.2387
14835SOL    HW145946   1.065   0.019   5.452 -0.6212  1.3490  1.9473
14835SOL    HW245947   1.163   0.056   5.343 -2.6193  0.2874 -0.3024
14836SOL     OW45948   1.688   1.944   8.444  0.8335 -0.5585  0.1574
14836SOL    HW145949   1.734   1.895   8.512  2.1752  0.3958 -0.0174
14836SOL    HW245950   1.597   1.945   8.472  1.3521 -0.2124  1.9323
14837SOL     OW45951   6.550   1.398   4.059  0.4157 -0.2203 -1.0461
14837SOL    HW145952   6.601   1.477   4.071  1.6699 -0.9780 -1.1453
14837SOL    HW245953   6.558   1.378   3.965  0.0067 -0.3994 -1.0480
14838SOL     OW45954   1.330   5.060   9.582 -0.1257  0.1186 -0.0928
14838SOL    HW145955   1.347   5.118   9.508  0.2822 -1.7644 -1.5734
14838SOL    HW245956   1.391   4.987   9.569  0.8225  0.2852  2.8167
14839SOL     OW45957   7.462   2.644  11.803  0.1854  0.5832  0.7491
14839SOL    HW145958   7.543   2.664  11.850  0.8133  1.4224 -0.6064
14839SOL    HW245959   7.475   2.682  11.716 -1.3794  0.0847  0.2577
14840SOL     OW45960   1.312   3.971   3.278  0.3910 -0.8487 -0.9443
14840SOL    HW145961   1.265   3.887   3.278  0.1805 -0.7342 -0.6040
14840SOL    HW245962   1.354   3.975   3.192  0.1245 -1.1478 -1.0927
14841SOL     OW45963   3.638   3.266   6.666  0.1531  0.3723  0.4964
14841SOL    HW145964   3.600   3.183   6.696  1.4739  0.2143  1.8255
14841SOL    HW245965   3.603   3.332   6.724  0.3530  0.5107  0.4621
14842SOL     OW45966   4.587   2.999   5.977 -0.3610  0.4130  0.0128
14842SOL    HW145967   4.567   3.092   5.994 -0.9415  0.3169 -0.1221
14842SOL    HW245968   4.551   2.983   5.890  0.9269  0.4050 -0.5353
14843SOL     OW45969   0.658   2.997   3.578  0.2552 -0.1773 -0.1189
14843SOL    HW145970   0.617   2.914   3.552 -0.4621  0.7152 -1.9773
14843SOL    HW245971   0.594   3.037   3.637  0.4295 -0.7408  0.4713
14844SOL     OW45972   1.531   5.523  10.380  0.3606 -0.1964 -0.5672
14844SOL    HW145973   1.542   5.461  10.452 -0.7901  0.1661 -0.0621
14844SOL    HW245974   1.437   5.542  10.378  0.4105  0.0438 -1.9647
14845SOL     OW45975   2.048   7.414   7.541  1.0424 -0.0833  0.2052
14845SOL    HW145976   1.959   7.409   7.578  0.6389  3.6276  0.1191
14845SOL    HW245977   2.102   7.364   7.602 -0.7639 -0.5746  1.5028
14846SOL     OW45978   5.655   5.510   8.351 -0.4552  0.0249 -0.0521
14846SOL    HW145979   5.717   5.552   8.291 -0.7087 -0.0774 -0.3920
14846SOL    HW245980   5.685   5.534   8.438  0.7872 -1.0182 -0.1648
14847SOL     OW45981   1.870   7.195   6.919 -0.0709  0.0131  0.3097
14847SOL    HW145982   1.789   7.228   6.959 -0.8115  0.3611 -1.3800
14847SOL    HW245983   1.842   7.161   6.834  1.5544  0.0123 -0.2488
14848SOL     OW45984   3.940   0.591   9.476 -0.6018  0.0755 -0.3920
14848SOL    HW145985   3.977   0.602   9.389  2.7489 -1.7024  0.6149
14848SOL    HW245986   3.971   0.505   9.505  0.3552  1.4796  3.3662
14849SOL     OW45987   4.647   4.837   5.615 -0.3447 -0.1820  1.0820
14849SOL    HW145988   4.671   4.756   5.660  0.6127 -0.0133  0.8834
14849SOL    HW245989   4.580   4.876   5.671 -0.1633 -0.6588  1.6472
14850SOL     OW45990   3.694   1.136   2.920  0.0261  0.0594 -0.1319
14850SOL    HW145991   3.693   1.229   2.895  2.3485  0.9866  2.7167
14850SOL    HW245992   3.727   1.091   2.842 -0.2231  1.7281 -1.2604
14851SOL     OW45993   5.838   3.183   7.562  0.1276  0.0725 -0.2386
14851SOL    HW145994   5.744   3.169   7.564 -0.2823  2.1970 -1.8282
14851SOL    HW245995   5.874   3.100   7.531 -1.2542 -0.5642 -0.1965
14852SOL     OW45996   1.806   7.133   3.867 -0.0692  0.0245  0.9807
14852SOL    HW145997   1.890   7.176   3.851 -0.5163  0.9227  0.9920
14852SOL    HW245998   1.741   7.204   3.861 -0.8899 -0.7536  0.3767
14853SOL     OW45999   4.383   4.341   1.990  0.1948 -0.2724  0.5471
14853SOL    HW146000   4.394   4.246   1.982 -0.0300 -0.2891  0.4248
14853SOL    HW246001   4.292   4.352   2.017 -0.5851  0.0051 -1.9154
14854SOL     OW46002   3.227   0.018   9.188  0.6456  0.0991 -0.4642
14854SOL    HW146003   3.236   0.003   9.282 -0.1751 -0.6359 -0.4974
14854SOL    HW246004   3.154   0.080   9.180  0.7284  0.1780 -0.6138
14855SOL     OW46005   5.832   7.248   3.847 -0.1554  0.1490 -0.2997
14855SOL    HW146006   5.753   7.208   3.884 -0.7501  0.1822 -1.4641
14855SOL    HW246007   5.801   7.330   3.808  0.7897  1.0495  0.7792
14856SOL     OW46008   7.718   6.519   3.164 -0.2999 -0.6349 -0.5089
14856SOL    HW146009   7.635   6.558   3.192  1.1939  3.0899 -0.6108
14856SOL    HW246010   7.747   6.467   3.239 -1.4271  0.3105  0.6211
14857SOL     OW46011   7.622   4.645   9.836  0.3616 -0.1103  0.0243
14857SOL    HW146012   7.643   4.708   9.767  0.1981  1.2158  1.1336
14857SOL    HW246013   7.527   4.656   9.850  0.2528 -0.9055 -0.0505
14858SOL     OW46014   0.198   7.229   9.514 -0.2083  0.2996  0.3975
14858SOL    HW146015   0.207   7.266   9.602  0.3735  0.1326  0.4139
14858SOL    HW246016   0.106   7.207   9.507 -0.2580  0.2990  0.9779
14859SOL     OW46017   6.330   2.810   7.693  0.1650  0.5601  0.2982
14859SOL    HW146018   6.360   2.782   7.606 -0.6663  0.6525 -0.0269
14859SOL    HW246019   6.352   2.903   7.697  0.9821  0.3638  0.5316
14860SOL     OW46020   2.693   5.665   7.861  0.8243 -0.3705 -0.1813
14860SOL    HW146021   2.618   5.606   7.867  0.5206  0.1168  0.9430
14860SOL    HW246022   2.676   5.718   7.783 -1.1134  1.2422  1.2599
14861SOL     OW46023   7.892   1.802   4.742  0.0829 -0.0872  0.6712
14861SOL    HW146024   7.924   1.805   4.832  0.3149 -2.3579  0.7370
14861SOL    HW246025   7.797   1.812   4.749  0.1565  0.3254  1.1014
14862SOL     OW46026   5.679   3.601  12.061  0.4175 -0.0847 -0.6553
14862SOL    HW146027   5.749   3.652  12.103 -2.2861  1.6937  2.1827
14862SOL    HW246028   5.685   3.625  11.969  2.7840  0.8994 -0.3447
14863SOL     OW46029   4.597   6.165  12.448 -0.5493 -0.3466 -0.1567
14863SOL    HW146030   4.549   6.169  12.531  1.8139  2.9041  1.3153
14863SOL    HW246031   4.604   6.072  12.428 -4.1275 -1.1237  1.4032
14864SOL     OW46032   6.576   4.982   6.825 -0.0885 -0.1634 -0.1650
14864SOL    HW146033   6.638   4.915   6.854 -0.1897  0.0978  0.6948
14864SOL    HW246034   6.493   4.955   6.864 -0.1638  0.3652  0.0421
14865SOL     OW46035   4.570   7.497   4.808 -0.4092  0.5369  0.0257
14865SOL    HW146036   4.530   7.501   4.721  0.9390 -0.5883 -0.6906
14865SOL    HW246037   4.507   7.448   4.861 -0.4647 -0.3471 -0.8165
14866SOL     OW46038   2.725   1.161   6.879  0.6086 -0.3564  0.3004
14866SOL    HW146039   2.688   1.189   6.795  1.3011 -0.5640 -0.0892
14866SOL    HW246040   2.657   1.107   6.919  0.2419 -0.1900 -0.0977
14867SOL     OW46041   6.804   6.483   7.910  0.5092  0.4901  0.1894
14867SOL    HW146042   6.750   6.439   7.977  0.9173 -0.3708 -0.0292
14867SOL    HW246043   6.893   6.454   7.929  0.4602 -1.0556 -1.6817
14868SOL     OW46044   1.741   6.981   3.619  0.0595  0.2092  0.6402
14868SOL    HW146045   1.662   6.986   3.673  0.2018  2.3215  0.7339
14868SOL    HW246046   1.808   7.024   3.672  0.7327  0.3737 -0.3409
14869SOL     OW46047   4.757   7.075   9.443 -0.0723 -0.1431  0.1952
14869SOL    HW146048   4.763   7.155   9.391 -2.9618  0.0548  0.0099
14869SOL    HW246049   4.673   7.082   9.488 -0.5726 -3.2130 -0.0569
14870SOL     OW46050   1.729   2.923   0.015  0.6542  0.4212  0.1607
14870SOL    HW146051   1.689   3.003  -0.020  0.1255 -0.9869 -2.7452
14870SOL    HW246052   1.656   2.865   0.033  1.0434  0.4666  2.1579
14871SOL     OW46053   0.550   4.836   8.180  0.0438 -0.2375 -0.0839
14871SOL    HW146054   0.614   4.827   8.108  0.8111  0.1344  0.5347
14871SOL    HW246055   0.498   4.912   8.155  0.9420  0.5001  0.2059
14872SOL     OW46056   2.713   3.950  10.875  0.0292 -0.4522 -0.6278
14872SOL    HW146057   2.686   3.863  10.845 -0.7647 -0.1625 -0.7601
14872SOL    HW246058   2.745   3.936  10.965 -2.4841 -0.5009  0.3360
14873SOL     OW46059   0.955   0.067   9.254 -0.0758 -0.1680  0.1409
14873SOL    HW146060   1.002   0.145   9.282 -1.9053  0.1950  2.6439
14873SOL    HW246061   1.017  -0.005   9.265  0.8434  0.6426  0.3120
14874SOL     OW46062   6.027   1.565   9.617  0.4843  0.1597 -0.1404
14874SOL    HW146063   6.032   1.503   9.545 -0.8790  0.5866 -0.6336
14874SOL    HW246064   6.085   1.637   9.591 -1.7918  1.4395 -2.0011
14875SOL     OW46065   4.804   6.128   4.374 -0.5081  0.3737 -0.5994
14875SOL    HW146066   4.766   6.190   4.312 -0.7647  0.0124 -0.8044
14875SOL    HW246067   4.893   6.161   4.389  0.2564 -0.5743 -2.6390
14876SOL     OW46068   6.848   1.821  10.459 -0.6561 -0.0489 -0.4113
14876SOL    HW146069   6.793   1.796  10.533  0.1403  2.0126  0.9645
14876SOL    HW246070   6.786   1.854  10.394 -1.3650 -1.8958 -0.7364
14877SOL     OW46071   1.108   2.881   6.761 -0.1967  1.5673  0.0590
14877SOL    HW146072   1.098   2.963   6.714  0.0491  1.7950  0.3918
14877SOL    HW246073   1.083   2.902   6.851 -3.1237  0.5452 -0.4094
14878SOL     OW46074   0.808   7.023   7.887 -0.5595  0.3254  0.3757
14878SOL    HW146075   0.897   7.040   7.920 -0.3765 -1.5387  1.0063
14878SOL    HW246076   0.756   7.010   7.966 -1.8021  2.8380  0.0767
14879SOL     OW46077   6.384   4.380  11.012  0.1302  0.3871  0.6791
14879SOL    HW146078   6.331   4.431  10.950  1.2719  1.8607  0.8432
14879SOL    HW246079   6.470   4.374  10.971  0.2562 -0.6547  1.0794
14880SOL     OW46080   7.101   7.710   7.456  0.3098  0.1784 -0.0791
14880SOL    HW146081   7.056   7.744   7.379 -0.3293  0.0276  0.2166
14880SOL    HW246082   7.064   7.761   7.529  0.3301 -0.2247  0.2139
14881SOL     OW46083   2.859   6.282   1.612  0.3201 -0.3179  0.2428
14881SOL    HW146084   2.934   6.340   1.602  0.2832 -0.3409 -0.1997
14881SOL    HW246085   2.788   6.326   1.566  0.4244 -0.9473 -0.5570
14882SOL     OW46086   3.078   1.620   8.454  0.3857  0.1244 -0.5805
14882SOL    HW146087   3.044   1.619   8.544 -0.5362 -0.3475 -0.9271
14882SOL    HW246088   3.005   1.592   8.400  0.4645  1.8579 -1.6581
14883SOL     OW46089   7.100   0.968   6.468 -0.1793 -0.1221 -0.7300
14883SOL    HW146090   7.173   0.937   6.523 -0.3876  2.0328  0.9043
14883SOL    HW246091   7.071   1.048   6.511 -2.6095 -0.1538 -2.1548
14884SOL     OW46092   0.832   4.648   8.915  0.0821  0.1456 -0.3546
14884SOL    HW146093   0.780   4.728   8.912 -1.9720 -1.1333 -1.4781
14884SOL    HW246094   0.790   4.595   8.983  1.8764  0.2853  0.9097
14885SOL     OW46095   5.468   0.221   2.481  0.0481 -0.1343 -0.4815
14885SOL    HW146096   5.492   0.242   2.390  3.1103  0.4210  0.3309
14885SOL    HW246097   5.504   0.134   2.495 -1.4676 -0.7256 -0.1087
14886SOL     OW46098   3.363   0.950   5.650 -0.4887 -0.1377  0.7301
14886SOL    HW146099   3.357   0.890   5.725 -2.0031 -0.5848  0.2857
14886SOL    HW246100   3.394   1.032   5.687 -0.3320 -0.6146  1.6857
14887SOL     OW46101   2.595   5.148   1.905 -0.2847 -0.4286  0.6492
14887SOL    HW146102   2.679   5.106   1.889  0.4885  0.7670  1.3397
14887SOL    HW246103   2.604   5.186   1.993 -1.3207  0.2349  0.4837
14888SOL     OW46104   5.183   2.630   6.031  0.1510  0.7009  0.2149
14888SOL    HW146105   5.219   2.659   5.947  0.6115 -0.3410  0.0349
14888SOL    HW246106   5.214   2.539   6.040 -1.0335  0.3485  0.8649
14889SOL     OW46107   0.890   4.179   2.372  0.3726  0.1898  0.0577
14889SOL    HW146108   0.949   4.224   2.311  1.3122 -0.6095  0.3410
14889SOL    HW246109   0.803   4.214   2.352  1.0787  2.2837  0.4443
14890SOL     OW46110   7.747   2.303   7.865 -0.1320 -0.0325  0.5108
14890SOL    HW146111   7.688   2.356   7.812  0.1881  0.8321  1.0012
14890SOL    HW246112   7.749   2.218   7.821  0.2970  0.7172 -0.9838
14891SOL     OW46113   3.722   2.579   3.953 -0.2358 -0.1297 -0.0687
14891SOL    HW146114   3.687   2.496   3.919 -1.4972  0.2162  0.3335
14891SOL    HW246115   3.689   2.585   4.042 -0.2727  0.8704 -0.1354
14892SOL     OW46116   4.025   0.206   2.995  0.2759  0.1277 -0.3570
14892SOL    HW146117   4.075   0.129   3.022 -0.8634 -1.2944 -2.0703
14892SOL    HW246118   3.971   0.227   3.072  2.6042  1.0366  1.1330
14893SOL     OW46119   7.648   1.488   5.648  0.0786  0.1030 -0.1248
14893SOL    HW146120   7.716   1.421   5.645  0.3705  0.3536  0.6265
14893SOL    HW246121   7.566   1.439   5.658  0.1679 -0.1883 -0.8080
14894SOL     OW46122   1.980   1.564   9.831 -0.0013 -0.2032  0.2293
14894SOL    HW146123   1.952   1.489   9.777  2.6525 -1.4115  0.3576
14894SOL    HW246124   2.017   1.626   9.768  0.9903 -0.6015  0.3890
14895SOL     OW46125   5.386   5.875   6.136  0.2399  0.4833  0.4628
14895SOL    HW146126   5.336   5.857   6.057 -0.4129  0.4872  0.8628
14895SOL    HW246127   5.420   5.790   6.163  1.5279  0.6710 -0.5063
14896SOL     OW46128   5.456   1.905   2.389 -0.1626  0.0702  0.1076
14896SOL    HW146129   5.465   1.889   2.483  2.4876 -1.1244 -0.2507
14896SOL    HW246130   5.439   1.999   2.383 -0.7866  0.1020  1.7889
14897SOL     OW46131   6.111   7.787   6.553 -0.4126  0.2905  0.3381
14897SOL    HW146132   6.169   7.857   6.582 -1.9682  2.1391 -0.7557
14897SOL    HW246133   6.030   7.802   6.602 -1.5917  0.8246 -1.6618
14898SOL     OW46134   4.190   5.709  10.896 -0.6146 -0.1469  0.0621
14898SOL    HW146135   4.264   5.680  10.843 -1.0249 -0.7297 -0.1969
14898SOL    HW246136   4.158   5.630  10.939 -0.6102  0.2301  0.7771
14899SOL     OW46137   7.490   3.494   9.175 -0.2654 -0.0588  0.3026
14899SOL    HW146138   7.446   3.414   9.148  1.0259 -0.6176 -0.2594
14899SOL    HW246139   7.556   3.465   9.238  0.5623  0.4749 -0.2983
14900SOL     OW46140   0.030   3.885   5.719  0.1166  0.2833 -0.3776
14900SOL    HW146141   0.093   3.950   5.750  1.1403 -0.2288 -1.3101
14900SOL    HW246142   0.052   3.805   5.767 -0.4972  0.3738  0.0514
14901SOL     OW46143   6.815   1.356   2.725  0.2349  0.1307 -0.1100
14901SOL    HW146144   6.757   1.305   2.669  1.8078 -0.0178 -1.6928
14901SOL    HW246145   6.893   1.302   2.734  0.4383  0.6310  1.3806
14902SOL     OW46146   6.794   1.449   4.923 -0.0438  0.0399 -0.0297
14902SOL    HW146147   6.876   1.457   4.971  0.1877  0.2551 -0.4621
14902SOL    HW246148   6.753   1.535   4.933 -0.8967 -0.4950  1.4051
14903SOL     OW46149   6.047   7.540   6.045 -0.2078 -0.2847  0.0464
14903SOL    HW146150   6.019   7.602   6.112  0.0889 -0.2093  0.1017
14903SOL    HW246151   6.139   7.524   6.064 -0.4363 -1.2302  0.4186
14904SOL     OW46152   3.299   1.668   8.176 -0.3368  0.1523 -0.9575
14904SOL    HW146153   3.257   1.663   8.090  1.8591  0.6016 -2.1258
14904SOL    HW246154   3.242   1.727   8.226 -1.5456  0.0631 -2.1505
14905SOL     OW46155   0.955   7.093   4.483 -0.3901 -0.2974 -0.1347
14905SOL    HW146156   1.026   7.072   4.544  0.1964  0.1110 -0.6719
14905SOL    HW246157   0.917   7.174   4.518 -1.2254 -1.0119  0.6872
14906SOL     OW46158   6.297   0.443  10.651  0.3435  0.3662 -0.1644
14906SOL    HW146159   6.391   0.448  10.667  0.9722  0.1779 -3.1303
14906SOL    HW246160   6.290   0.404  10.564 -2.5150  0.1419  0.0710
14907SOL     OW46161   1.961   2.549   4.067  0.4611 -0.4711 -0.4174
14907SOL    HW146162   1.920   2.502   4.140 -0.7845 -1.4604 -1.7007
14907SOL    HW246163   1.963   2.485   3.996 -2.5719  1.6873 -2.7035
14908SOL     OW46164   5.877   1.513   1.201 -0.0858 -0.0245 -0.3125
14908SOL    HW146165   5.797   1.539   1.247 -0.4635  0.6212 -1.3107
14908SOL    HW246166   5.849   1.448   1.137 -0.0982  1.2723 -1.6860
14909SOL     OW46167   4.680   2.309  10.349  0.1252 -0.2430 -0.3542
14909SOL    HW146168   4.765   2.354  10.350 -0.3440  0.6623  0.7535
14909SOL    HW246169   4.643   2.333  10.264  0.4535  0.3821 -0.3311
14910SOL     OW46170   4.241   2.744   9.230 -0.1701  0.0587  0.3927
14910SOL    HW146171   4.200   2.781   9.308 -0.5140 -0.1758  0.3226
14910SOL    HW246172   4.273   2.820   9.181  1.1517  0.1641  1.3660
14911SOL     OW46173   6.459   2.604   2.458 -0.0519 -0.0523  0.3416
14911SOL    HW146174   6.493   2.688   2.486  1.8951 -0.9938  0.9815
14911SOL    HW246175   6.456   2.551   2.538 -1.7973 -0.4597  0.0617
14912SOL     OW46176   4.450   7.140  11.796 -0.1008 -0.0757  0.1373
14912SOL    HW146177   4.361   7.128  11.762 -0.6955 -1.0113  1.8625
14912SOL    HW246178   4.461   7.069  11.859  0.9223  1.4868  1.8137
14913SOL     OW46179   4.872   6.137   7.075  0.2643 -0.6508  0.0210
14913SOL    HW146180   4.963   6.164   7.065 -0.4450  1.4574 -1.2662
14913SOL    HW246181   4.840   6.123   6.986 -0.8858 -0.6088  0.4015
14914SOL     OW46182   3.606   7.871   1.973  0.2205 -0.4366 -0.3208
14914SOL    HW146183   3.589   7.785   1.933  0.2911 -0.4551 -0.3107
14914SOL    HW246184   3.628   7.851   2.064  0.2633 -0.4093 -0.3253
14915SOL     OW46185   0.656   1.648   0.170 -0.3116 -0.6091 -0.3568
14915SOL    HW146186   0.656   1.552   0.176  1.3793 -0.6816 -1.0445
14915SOL    HW246187   0.575   1.674   0.213  0.6056 -2.1800  2.6117
14916SOL     OW46188   2.848   0.600  12.160 -0.6648  0.4435 -0.1989
14916SOL    HW146189   2.921   0.662  12.159  0.4283 -0.7438  1.2352
14916SOL    HW246190   2.798   0.623  12.238 -1.2402  0.5989 -0.6108
14917SOL     OW46191   3.564   0.244   9.584  0.2057 -0.7376  0.2274
14917SOL    HW146192   3.531   0.247   9.494 -2.4002  0.2728  1.1248
14917SOL    HW246193   3.604   0.330   9.598 -2.0054  0.2405  0.8774
14918SOL     OW46194   2.857   0.299  10.471 -1.0187 -0.9234  0.3107
14918SOL    HW146195   2.857   0.297  10.375 -1.3987  0.5416  0.2665
14918SOL    HW246196   2.900   0.217  10.496 -2.0848 -1.9743 -1.0813
14919SOL     OW46197   4.426   7.416   8.214  0.2760  0.0608  0.3432
14919SOL    HW146198   4.425   7.511   8.221  0.2736  0.0152  0.9450
14919SOL    HW246199   4.478   7.399   8.135  1.4856  0.5078  1.0266
14920SOL     OW46200   7.665   5.320   3.240  0.1570  0.2517  0.6457
14920SOL    HW146201   7.580   5.279   3.221  0.0086  0.7947  0.0970
14920SOL    HW246202   7.683   5.297   3.331  1.4909 -3.5291 -0.3901
14921SOL     OW46203   5.871   5.343   7.383  0.4619 -0.4936  0.1567
14921SOL    HW146204   5.812   5.330   7.310 -0.2946  0.1453  0.6401
14921SOL    HW246205   5.861   5.265   7.437 -0.9407  0.1673  0.9061
14922SOL     OW46206   6.034   1.848   5.284  0.2536  0.6046 -0.4283
14922SOL    HW146207   6.102   1.910   5.311  0.3055  0.0010  0.9336
14922SOL    HW246208   6.009   1.875   5.196  1.0246  1.9030 -0.2633
14923SOL     OW46209   5.439   2.190   0.195 -0.1639 -0.1755  0.0488
14923SOL    HW146210   5.365   2.247   0.174  0.0452 -0.3480 -1.2451
14923SOL    HW246211   5.412   2.103   0.163 -0.4797 -0.8332  1.9983
14924SOL     OW46212   5.224   7.095   6.127  0.0155 -0.0446 -0.3758
14924SOL    HW146213   5.281   7.047   6.067 -0.4613  0.3401 -1.1506
14924SOL    HW246214   5.162   7.029   6.159 -1.2848  0.2189 -2.2220
14925SOL     OW46215   0.988   3.441   6.383 -0.7886  0.3889  0.0459
14925SOL    HW146216   1.028   3.463   6.299 -1.2211 -0.2747 -0.3546
14925SOL    HW246217   0.982   3.524   6.430 -0.5569  0.7723 -0.5889
14926SOL     OW46218   2.541   2.571   9.319  0.2868  0.1780 -0.0994
14926SOL    HW146219   2.628   2.531   9.313  0.8143  1.3814 -1.0695
14926SOL    HW246220   2.533   2.597   9.411  1.4901  1.1227 -0.2264
14927SOL     OW46221   2.583   3.566  12.344  0.4303  0.1827 -0.3435
14927SOL    HW146222   2.564   3.485  12.391  1.2250  0.1575 -0.0663
14927SOL    HW246223   2.615   3.626  12.411 -1.2565  1.1346 -0.3267
14928SOL     OW46224   1.566   4.934   0.660 -0.0830 -0.1601 -0.0839
14928SOL    HW146225   1.651   4.899   0.687  1.6634  1.5433 -2.8104
14928SOL    HW246226   1.545   4.998   0.727  1.6667  0.5649 -0.1575
14929SOL     OW46227   4.607   0.306   3.760  0.1937 -0.1187 -0.1641
14929SOL    HW146228   4.638   0.285   3.848 -1.4152 -1.8055  0.0754
14929SOL    HW246229   4.685   0.300   3.705  1.1209  0.4108  1.0514
14930SOL     OW46230   5.491   2.833   9.515  0.1623 -0.4172 -0.2998
14930SOL    HW146231   5.445   2.761   9.472  0.0868 -1.9842  2.2583
14930SOL    HW246232   5.572   2.843   9.465 -0.2833 -1.5808 -1.3112
14931SOL     OW46233   6.200   2.579   0.198  0.4313 -0.1075 -0.2773
14931SOL    HW146234   6.146   2.512   0.240  0.0991 -0.6120 -1.4663
14931SOL    HW246235   6.256   2.530   0.138  1.5158  0.5120  0.2074
14932SOL     OW46236   1.618   5.740  11.119 -0.2126  0.3003  0.6185
14932SOL    HW146237   1.542   5.701  11.161 -0.0233 -0.4842  0.2482
14932SOL    HW246238   1.613   5.709  11.028  1.0222 -0.4776  0.8012
14933SOL     OW46239   3.317   2.536   5.651  0.2309 -0.2232  0.3920
14933SOL    HW146240   3.323   2.509   5.559 -0.3796  1.0924 -0.0671
14933SOL    HW246241   3.408   2.548   5.679  0.4084 -0.0899 -0.2210
14934SOL     OW46242   5.116   6.763   2.393 -0.1404 -0.4644  0.2621
14934SOL    HW146243   5.198   6.733   2.355  0.1808 -1.1081  1.4314
14934SOL    HW246244   5.139   6.791   2.481 -1.1695 -0.6138  0.5902
14935SOL     OW46245   2.091   2.192   0.831  0.2904  0.0491 -0.2749
14935SOL    HW146246   2.032   2.184   0.756  0.8874  2.0156 -0.9967
14935SOL    HW246247   2.045   2.145   0.902 -3.2314  3.1662 -0.1812
14936SOL     OW46248   1.146   2.163   3.704  0.1945  0.9512 -0.6347
14936SOL    HW146249   1.215   2.123   3.757  0.6783  1.5998 -0.7697
14936SOL    HW246250   1.106   2.228   3.761 -1.9209 -0.9837  0.2886
14937SOL     OW46251   5.447   5.897   2.725  0.3156  0.1265 -0.0835
14937SOL    HW146252   5.540   5.915   2.719  0.1125  0.7989 -1.7011
14937SOL    HW246253   5.411   5.968   2.778  0.7412 -0.3241  0.8394
14938SOL     OW46254   4.577   3.761   8.924  0.0867 -0.0573 -0.2710
14938SOL    HW146255   4.562   3.699   8.853  0.3258  0.5862 -0.8929
14938SOL    HW246256   4.666   3.793   8.910  0.1240  0.1088  0.2972
14939SOL     OW46257   4.043   1.923  11.135 -0.1294  0.2248  0.4517
14939SOL    HW146258   3.999   1.962  11.059 -0.6049  0.5133  0.8631
14939SOL    HW246259   4.025   1.984  11.206  0.0485 -0.2014  0.8656
14940SOL     OW46260   7.504   3.908   8.995  0.7692  0.4213 -0.8578
14940SOL    HW146261   7.487   4.000   9.016  0.7125  0.2033  0.1302
14940SOL    HW246262   7.442   3.888   8.925  0.9639  1.2006 -1.2658
14941SOL     OW46263   7.195   4.806   4.376  0.3382  0.3256 -0.0238
14941SOL    HW146264   7.288   4.783   4.365  0.3300  0.4817 -0.4299
14941SOL    HW246265   7.194   4.902   4.371 -0.2994  0.2959 -4.0412
14942SOL     OW46266   4.903   6.238  11.607  0.7491 -1.0767 -0.5015
14942SOL    HW146267   4.855   6.211  11.686  1.3830 -1.3011 -0.1801
14942SOL    HW246268   4.835   6.260  11.544  0.2020  0.9547  0.7040
14943SOL     OW46269   5.044   1.104   1.641 -0.4011 -0.1586 -0.2926
14943SOL    HW146270   4.974   1.056   1.597 -0.3759 -1.4064  0.9526
14943SOL    HW246271   5.123   1.053   1.621 -0.1043  0.3156 -0.3351
14944SOL     OW46272   0.010   6.841   9.870  0.4153 -0.2990  0.0121
14944SOL    HW146273  -0.032   6.872   9.790  0.5646 -0.7076 -0.2286
14944SOL    HW246274   0.094   6.805   9.841  0.9953  0.6097  0.5043
14945SOL     OW46275   1.367   7.886  11.389  0.0095 -0.4008  0.0771
14945SOL    HW146276   1.348   7.808  11.440  0.7868  0.9079  2.5215
14945SOL    HW246277   1.446   7.863  11.339  0.4386 -1.0771  1.0404
14946SOL     OW46278   5.669   2.107   1.411  0.2636 -0.0956  0.2415
14946SOL    HW146279   5.718   2.172   1.360  1.3311 -0.8945  0.2272
14946SOL    HW246280   5.733   2.069   1.470 -0.3137 -1.2311  0.1618
14947SOL     OW46281   7.490   1.658   1.075 -0.3540  0.2676 -0.1624
14947SOL    HW146282   7.440   1.595   1.022 -0.1576  0.7090 -0.8852
14947SOL    HW246283   7.438   1.668   1.155  0.0651 -1.4956  0.3743
14948SOL     OW46284   6.669   4.534   0.957  0.2503 -0.2425 -0.2658
14948SOL    HW146285   6.750   4.484   0.964  0.0259 -0.4530  1.2654
14948SOL    HW246286   6.671   4.572   0.869  0.9260 -2.0826 -1.1099
14949SOL     OW46287   5.244   0.809   0.418 -0.4306 -0.3150 -0.3609
14949SOL    HW146288   5.196   0.727   0.409 -2.0070  0.7113 -1.9163
14949SOL    HW246289   5.214   0.863   0.345  3.6059  0.2119 -1.8799
14950SOL     OW46290   2.158   3.215   5.625 -0.0401 -0.2641 -0.0386
14950SOL    HW146291   2.092   3.146   5.614 -0.4326  0.2002 -0.6064
14950SOL    HW246292   2.122   3.291   5.580  1.1597 -0.1859 -0.9063
14951SOL     OW46293   6.867   7.662   0.833 -0.1117  0.0004  0.1874
14951SOL    HW146294   6.913   7.595   0.883 -1.9417  0.4435  2.6802
14951SOL    HW246295   6.774   7.647   0.853 -0.9601  0.4184 -2.9419
14952SOL     OW46296   4.034   0.257   6.007 -0.0967  0.2037  0.6780
14952SOL    HW146297   3.946   0.223   5.993  0.6036 -1.2346 -0.6804
14952SOL    HW246298   4.040   0.274   6.101 -1.4046 -0.8966  0.9828
14953SOL     OW46299   3.652   0.205   5.201 -0.0507  0.4657 -0.1536
14953SOL    HW146300   3.675   0.247   5.284 -1.5783  0.5677  0.2474
14953SOL    HW246301   3.575   0.152   5.222 -0.9398  1.0984 -1.6584
14954SOL     OW46302   1.800   4.297   6.101 -0.1224  0.0186  0.8747
14954SOL    HW146303   1.828   4.285   6.011 -0.3028  1.4411  0.6025
14954SOL    HW246304   1.880   4.292   6.153  0.0176 -0.5154  0.6070
14955SOL     OW46305   0.525   2.787   1.028  0.8967  0.1478  0.4882
14955SOL    HW146306   0.527   2.708   0.975 -2.0073  0.8402 -0.8198
14955SOL    HW246307   0.541   2.858   0.966 -1.7130  0.9067  0.6006
14956SOL     OW46308   0.116   5.741  11.453  0.2434 -0.4263  0.4319
14956SOL    HW146309   0.128   5.817  11.396  2.2094 -1.6554 -0.9190
14956SOL    HW246310   0.196   5.739  11.506  0.8259 -2.2180 -0.4395
14957SOL     OW46311   3.700   0.915   3.359  0.0742 -0.3979 -0.1233
14957SOL    HW146312   3.760   0.843   3.380  1.2333  0.7502  0.6532
14957SOL    HW246313   3.747   0.966   3.293 -0.1348  0.3934  0.3315
14958SOL     OW46314   4.849   3.492   8.976 -0.1884  0.4498  0.1605
14958SOL    HW146315   4.901   3.447   8.910 -0.4150  1.0173 -0.4133
14958SOL    HW246316   4.759   3.487   8.943 -0.2759  0.9090  0.3202
14959SOL     OW46317   4.969   4.964   1.031 -0.0802  0.1223  0.5201
14959SOL    HW146318   5.026   4.943   0.957  2.1603 -0.2068  2.2532
14959SOL    HW246319   4.966   4.883   1.082 -1.7182  0.3015  0.7524
14960SOL     OW46320   3.682   6.269   4.015  0.2124  0.6623 -0.4063
14960SOL    HW146321   3.700   6.277   3.921  1.4994  2.7826 -0.0347
14960SOL    HW246322   3.742   6.201   4.045 -0.1552  0.0229 -1.0691
14961SOL     OW46323   6.644   0.501   1.969  0.2210 -0.4851  0.2823
14961SOL    HW146324   6.643   0.555   2.048  1.4998 -2.6190  1.8576
14961SOL    HW246325   6.562   0.452   1.972 -1.1388  1.5109 -1.3684
14962SOL     OW46326   2.788   2.681   5.080 -0.2840  0.3120  0.5444
14962SOL    HW146327   2.806   2.774   5.074 -0.1957  0.1963 -1.9234
14962SOL    HW246328   2.697   2.672   5.052 -0.5725 -0.2737  1.6109
14963SOL     OW46329   4.050   2.086   8.186  0.5421 -0.2282  0.1972
14963SOL    HW146330   4.074   2.163   8.136 -0.5391 -0.1149 -0.1710
14963SOL    HW246331   3.968   2.110   8.230  0.0599 -1.2300 -0.1122
14964SOL     OW46332   2.879   3.201   4.690  0.1730 -0.3168  0.3286
14964SOL    HW146333   2.969   3.190   4.660 -0.0714  1.3475 -1.2310
14964SOL    HW246334   2.864   3.295   4.686 -1.5803 -0.5452  0.7422
14965SOL     OW46335   5.477   3.464  12.151 -0.1329 -0.8063 -0.1037
14965SOL    HW146336   5.526   3.398  12.201  1.0672 -0.2266 -0.4785
14965SOL    HW246337   5.542   3.529  12.127 -1.6597  1.9318  2.4449
14966SOL     OW46338   6.038   6.338   6.322  0.1788 -0.1398 -0.3896
14966SOL    HW146339   5.950   6.341   6.361  0.1004 -0.8928 -0.5001
14966SOL    HW246340   6.076   6.423   6.343 -0.6855  0.3128 -0.5888
14967SOL     OW46341   3.334   1.716   4.858 -0.1414  0.6644 -0.3596
14967SOL    HW146342   3.284   1.664   4.795 -1.3561 -0.6829  1.5737
14967SOL    HW246343   3.372   1.652   4.917 -0.3877  1.8797  1.2085
14968SOL     OW46344   4.679   6.509   6.029  0.0956  0.0859 -0.3129
14968SOL    HW146345   4.611   6.472   5.974 -0.9526  1.8114 -0.2272
14968SOL    HW246346   4.761   6.482   5.988 -0.5805 -2.2949 -0.2414
14969SOL     OW46347   7.484   7.144   0.910 -0.0579  0.1493  0.0127
14969SOL    HW146348   7.433   7.181   0.982 -1.3260  0.9946 -1.2675
14969SOL    HW246349   7.419   7.104   0.853  0.8221  0.2737 -1.1133
14970SOL     OW46350   3.313   3.532   6.828  0.7705 -0.0162  0.0322
14970SOL    HW146351   3.294   3.535   6.734 -0.1861 -1.9693  0.1062
14970SOL    HW246352   3.370   3.455   6.838  2.2851  1.1454  0.8793
14971SOL     OW46353   6.257   0.976   1.726  0.0834 -0.5557 -0.4655
14971SOL    HW146354   6.284   1.041   1.662  2.3911 -0.9751 -0.0045
14971SOL    HW246355   6.289   1.010   1.810  2.0003 -2.5579 -0.3014
14972SOL     OW46356   7.378   0.566   5.293 -0.2288 -0.2133  0.1289
14972SOL    HW146357   7.301   0.579   5.238 -0.3796 -2.8852 -0.4477
14972SOL    HW246358   7.453   0.584   5.236 -0.3793  0.8888  0.2526
14973SOL     OW46359   3.999   5.807   5.873  0.0271 -0.1546 -0.2029
14973SOL    HW146360   3.969   5.746   5.805 -2.5806  1.3731 -0.5356
14973SOL    HW246361   4.009   5.752   5.951 -0.1322 -1.3664 -0.9999
14974SOL     OW46362   6.337   5.491   0.974 -0.2982  0.0565  0.2803
14974SOL    HW146363   6.270   5.463   0.912 -1.5530 -0.8088  1.9468
14974SOL    HW246364   6.411   5.517   0.919 -1.4324 -0.4083 -1.5653
14975SOL     OW46365   0.321   1.001   5.243 -0.0577  0.5571 -0.0173
14975SOL    HW146366   0.308   0.924   5.298 -0.6307  0.8247  0.2364
14975SOL    HW246367   0.405   1.037   5.271  0.5339 -0.3433 -0.5956
14976SOL     OW46368   5.988   3.927   4.621 -0.3813  0.2142 -0.4035
14976SOL    HW146369   6.066   3.974   4.650  1.4730 -3.1395  0.6570
14976SOL    HW246370   5.995   3.927   4.525  0.6395  0.4616 -0.3421
14977SOL     OW46371   3.837   5.104   6.126  0.5831  0.0769  0.3009
14977SOL    HW146372   3.815   5.138   6.213 -1.5601 -1.6662  0.5274
14977SOL    HW246373   3.768   5.136   6.069  0.6802 -0.6705 -0.2607
14978SOL     OW46374   1.247   7.234  11.857  0.3150 -0.6771  0.5905
14978SOL    HW146375   1.198   7.154  11.837 -1.5654 -0.0843  2.4448
14978SOL    HW246376   1.218   7.258  11.946 -2.3955  4.2468 -1.2382
14979SOL     OW46377   6.577   5.435   9.762 -0.4903  0.7003  0.9564
14979SOL    HW146378   6.561   5.503   9.697  0.7094  1.0935  1.0408
14979SOL    HW246379   6.528   5.359   9.730 -0.1357  0.9652 -0.2792
14980SOL     OW46380   1.431   7.834   5.332 -0.3174  0.2054  0.1230
14980SOL    HW146381   1.430   7.873   5.419 -1.0154 -0.4707  0.4325
14980SOL    HW246382   1.398   7.903   5.274 -0.0659  0.5794  0.4274
14981SOL     OW46383   3.101   2.723   7.659  0.4438  0.4829 -0.1796
14981SOL    HW146384   3.119   2.808   7.700 -0.0519  1.2043 -1.3759
14981SOL    HW246385   3.026   2.741   7.602 -0.5928 -1.1181  0.6340
14982SOL     OW46386   2.696   2.765  12.055  0.2580  0.2747 -0.0823
14982SOL    HW146387   2.693   2.800  12.144  0.3529  1.2976 -0.4673
14982SOL    HW246388   2.608   2.778  12.021 -0.0573 -1.0099  0.1696
14983SOL     OW46389   0.304   7.524   3.349 -0.0662  0.4429  0.2871
14983SOL    HW146390   0.214   7.551   3.366 -0.4502 -0.1883 -0.6822
14983SOL    HW246391   0.326   7.564   3.265  0.3794  0.1605  0.2616
14984SOL     OW46392   7.848   6.610   0.156  0.0721  0.3891  0.0738
14984SOL    HW146393   7.779   6.572   0.210  0.2326 -0.8581 -0.5754
14984SOL    HW246394   7.929   6.590   0.204  0.0966  0.7370  0.1870
14985SOL     OW46395   6.102   4.354   0.179  0.2126  0.3178 -0.1740
14985SOL    HW146396   6.171   4.390   0.234 -0.4351 -0.6707  1.3534
14985SOL    HW246397   6.031   4.334   0.240  0.3880 -3.1828 -0.9195
14986SOL     OW46398   2.965   5.304   5.720  0.4538  0.0978  0.2231
14986SOL    HW146399   2.940   5.232   5.662  1.7381 -0.2163  0.0156
14986SOL    HW246400   2.922   5.284   5.803  0.0497 -0.4099 -0.0978
14987SOL     OW46401   3.530   5.784   5.301 -0.2843 -0.2317  0.0751
14987SOL    HW146402   3.496   5.797   5.213 -0.3609 -1.0333 -0.0201
14987SOL    HW246403   3.534   5.689   5.312 -0.4790 -0.1418  1.0187
14988SOL     OW46404   2.444   5.161   4.026  0.4130  0.0593  0.8516
14988SOL    HW146405   2.518   5.213   4.057  0.2861  0.8729 -0.1695
14988SOL    HW246406   2.370   5.222   4.027  0.6265  0.4928 -2.1037
14989SOL     OW46407   3.273   3.105  11.179 -0.3308 -0.1765  0.4908
14989SOL    HW146408   3.249   3.187  11.224 -0.1770  1.2372 -1.8104
14989SOL    HW246409   3.366   3.095  11.195 -0.4097 -0.0711  1.0408
14990SOL     OW46410   2.168   5.457   2.446 -0.4153 -1.1304 -0.2660
14990SOL    HW146411   2.186   5.473   2.353 -1.5732  1.5083 -0.1326
14990SOL    HW246412   2.088   5.507   2.463 -0.1293 -1.4223  2.2147
14991SOL     OW46413   5.229   2.356   6.028  0.1792  0.1718  0.0063
14991SOL    HW146414   5.192   2.268   6.031  1.0670 -0.1982  0.9230
14991SOL    HW246415   5.283   2.356   5.948 -2.5227  1.0837 -1.9722
14992SOL     OW46416   4.883   1.329   8.909 -0.3315  0.1956 -0.0526
14992SOL    HW146417   4.856   1.413   8.873 -0.0086  0.3885  0.1483
14992SOL    HW246418   4.801   1.284   8.930 -0.5176  0.2234 -0.6868
14993SOL     OW46419   7.468   2.755  12.112  0.1190  0.1090 -0.1957
14993SOL    HW146420   7.474   2.718  12.200  0.7762 -0.1579 -0.3464
14993SOL    HW246421   7.557   2.785  12.093  0.1116 -0.3462 -0.9874
14994SOL     OW46422   1.638   0.892   1.200 -0.3333  0.2275 -0.2169
14994SOL    HW146423   1.643   0.806   1.159 -1.0905  0.3585 -0.6026
14994SOL    HW246424   1.673   0.878   1.288  0.1378 -0.3316 -0.4839
14995SOL     OW46425   1.829   7.061   6.697 -0.8618  0.2687 -0.3563
14995SOL    HW146426   1.760   7.003   6.728 -0.1436 -1.0189 -1.0733
14995SOL    HW246427   1.800   7.090   6.611 -0.4707 -0.4101 -0.7332
14996SOL     OW46428   1.159   3.401   1.310  0.0962 -0.3203 -0.2546
14996SOL    HW146429   1.090   3.414   1.245 -0.2068  0.0762  0.1420
14996SOL    HW246430   1.228   3.462   1.283 -1.4741  2.6432  1.8159
14997SOL     OW46431   3.795   2.006   1.520  0.0927  0.0609 -0.1666
14997SOL    HW146432   3.807   2.069   1.449  3.7038 -0.9513 -0.6468
14997SOL    HW246433   3.791   2.060   1.599 -0.7924  1.0151 -0.8215
14998SOL     OW46434   7.657   3.431   6.367  0.5225  0.1941  0.1718
14998SOL    HW146435   7.606   3.383   6.432  0.4196  1.0477  0.7316
14998SOL    HW246436   7.734   3.376   6.351  0.2948 -0.2611  0.6273
14999SOL     OW46437   0.244   0.633   6.291 -0.5213 -0.5534 -0.0543
14999SOL    HW146438   0.271   0.570   6.359 -1.2225 -0.1651  0.5940
14999SOL    HW246439   0.259   0.719   6.331 -0.7846 -0.3209 -0.4569
15000SOL     OW46440   4.354   1.642   2.472 -0.5637  0.7711  0.4394
15000SOL    HW146441   4.276   1.664   2.523 -0.0138  1.3208  1.0749
15000SOL    HW246442   4.338   1.553   2.440 -1.4886  0.9193  0.4729
15001SOL     OW46443   1.684   4.344   4.059 -0.3448 -0.8304  0.0274
15001SOL    HW146444   1.693   4.437   4.037 -0.3538 -0.9257 -0.3930
15001SOL    HW246445   1.637   4.307   3.984 -1.6402 -0.8939  0.8512
15002SOL     OW46446   1.840   6.979   5.331 -0.3372 -0.2642  0.4276
15002SOL    HW146447   1.801   6.914   5.390 -0.5296 -1.0612 -0.5498
15002SOL    HW246448   1.765   7.024   5.292 -0.3630 -1.8159 -1.4746
15003SOL     OW46449   6.135   3.463   3.501 -0.1912 -0.4003 -0.1075
15003SOL    HW146450   6.209   3.524   3.495  1.3175 -2.2542 -1.3813
15003SOL    HW246451   6.084   3.480   3.422 -0.5353  0.1047  0.2141
15004SOL     OW46452   5.670   3.729   8.567 -0.1940  0.3902  0.4285
15004SOL    HW146453   5.701   3.642   8.593  0.9069  0.7472  0.3553
15004SOL    HW246454   5.578   3.731   8.593 -0.1160 -0.6425  0.8068
15005SOL     OW46455   0.010   7.643   8.242  0.5028  0.5179  0.2447
15005SOL    HW146456  -0.082   7.633   8.218  0.5362  1.1158 -0.1514
15005SOL    HW246457   0.036   7.557   8.274  0.1488 -0.0032 -0.8261
15006SOL     OW46458   7.625   6.763   7.831  0.3246 -0.1396  0.0772
15006SOL    HW146459   7.553   6.794   7.777  1.2443  0.6317 -0.7440
15006SOL    HW246460   7.595   6.678   7.865 -1.1097  0.3534  0.0939
15007SOL     OW46461   0.243   2.046   4.185  0.2790  0.6809 -0.5941
15007SOL    HW146462   0.326   2.067   4.143  0.8332  0.1242  0.1816
15007SOL    HW246463   0.205   2.131   4.208  0.0272  0.9864 -2.0641
15008SOL     OW46464   3.748   1.612   6.809  0.0250  0.0629 -0.0518
15008SOL    HW146465   3.753   1.603   6.905 -0.4972 -1.9521 -0.1840
15008SOL    HW246466   3.790   1.534   6.775 -1.5539 -0.2251 -1.4547
15009SOL     OW46467   4.916   7.619  10.308 -0.0588 -0.3095 -0.6451
15009SOL    HW146468   4.865   7.631  10.389  0.0622  0.8110 -0.7149
15009SOL    HW246469   4.875   7.545  10.264 -0.1017 -0.9670  0.4607
15010SOL     OW46470   7.811   6.241  10.633  0.7669 -0.5224  0.1846
15010SOL    HW146471   7.795   6.147  10.635 -0.1079 -0.3654  0.7759
15010SOL    HW246472   7.894   6.250  10.586 -0.6395 -1.4031 -2.7652
15011SOL     OW46473   7.336   3.495   9.907  0.1719 -0.3500 -0.3284
15011SOL    HW146474   7.311   3.548   9.831  1.4331 -0.2625 -0.7060
15011SOL    HW246475   7.341   3.406   9.873 -1.3220 -0.6392  0.1589
15012SOL     OW46476   5.016   3.904   4.821 -0.2835 -0.5428 -0.5247
15012SOL    HW146477   4.969   3.988   4.820  0.0396 -0.3679 -1.6126
15012SOL    HW246478   4.950   3.840   4.794 -0.1453 -0.4218 -1.1676
15013SOL     OW46479   5.975   0.643   0.441 -0.5660 -0.4233  0.2420
15013SOL    HW146480   5.931   0.725   0.416 -0.5055 -0.3344  0.4272
15013SOL    HW246481   6.038   0.628   0.371  0.1391  0.2317  0.7283
15014SOL     OW46482   3.093   2.686   1.876  0.1581  0.5259 -0.2866
15014SOL    HW146483   3.086   2.644   1.790 -0.7813  1.2633 -0.5987
15014SOL    HW246484   3.044   2.629   1.935 -1.4621  1.3246 -0.7868
15015SOL     OW46485   3.522   6.416   6.656 -0.2899  0.0357 -0.6643
15015SOL    HW146486   3.616   6.432   6.658 -0.4934  1.6463 -1.5943
15015SOL    HW246487   3.497   6.403   6.747  0.6607  0.8127 -0.2810
15016SOL     OW46488   2.081   1.190   9.573  0.0329  0.3113 -0.6994
15016SOL    HW146489   2.102   1.265   9.628 -1.4941  0.3681 -0.1466
15016SOL    HW246490   2.002   1.153   9.612  0.1067 -0.9130 -1.6339
15017SOL     OW46491   2.625   3.129   8.273  0.3695 -0.2041  0.3511
15017SOL    HW146492   2.660   3.151   8.360  0.2408 -1.4891  0.7523
15017SOL    HW246493   2.664   3.044   8.253 -0.1119 -0.2140 -0.5801
15018SOL     OW46494   5.762   1.704   2.909 -0.7464 -0.1863 -0.4915
15018SOL    HW146495   5.668   1.687   2.917 -0.8651  0.9687  0.9400
15018SOL    HW246496   5.784   1.757   2.985  0.6371  1.4593 -1.9509
15019SOL     OW46497   3.560   4.565  11.005  0.2395 -0.1657  0.4021
15019SOL    HW146498   3.521   4.648  10.977 -0.7930 -0.5731  0.5879
15019SOL    HW246499   3.495   4.527  11.064  0.5566 -1.2691  0.0550
15020SOL     OW46500   3.258   0.848  12.282 -0.4487  0.0525 -0.4760
15020SOL    HW146501   3.219   0.762  12.293 -0.5163  0.0614 -0.6375
15020SOL    HW246502   3.344   0.842  12.324 -0.3797 -0.1495 -0.6422
15021SOL     OW46503   5.838   5.398   0.854 -0.2438 -0.1888 -0.0366
15021SOL    HW146504   5.779   5.456   0.805  0.4226  1.2080  0.7466
15021SOL    HW246505   5.917   5.393   0.801 -0.8668 -1.7112 -0.8753
15022SOL     OW46506   7.022   1.003  11.432 -0.0214 -0.5234  0.1599
15022SOL    HW146507   6.978   1.034  11.353 -1.8269 -3.6094 -0.1949
15022SOL    HW246508   6.953   1.000  11.499  0.5091 -1.8201  0.6861
15023SOL     OW46509   5.157   2.935   0.535  0.7114 -0.3234  0.9137
15023SOL    HW146510   5.082   2.993   0.538  0.0207 -1.1851  0.8782
15023SOL    HW246511   5.198   2.944   0.621 -0.3600 -1.0137  1.5211
15024SOL     OW46512   7.630   5.193   0.633  0.1484 -0.3380  0.5710
15024SOL    HW146513   7.590   5.197   0.546 -0.8404  0.9846  1.0606
15024SOL    HW246514   7.715   5.236   0.622  0.2711 -0.6931  0.1306
15025SOL     OW46515   3.508   2.588   0.654 -0.2240  0.7234  0.3729
15025SOL    HW146516   3.548   2.504   0.631  1.2258  0.6178  2.8546
15025SOL    HW246517   3.519   2.642   0.576  1.1982 -0.5828 -0.3893
15026SOL     OW46518   5.471   4.016   8.701  0.1518  0.0845  1.2313
15026SOL    HW146519   5.540   4.006   8.636 -1.1159  1.9912 -0.5227
15026SOL    HW246520   5.430   3.930   8.705  1.6658 -0.6743  1.2277
15027SOL     OW46521   6.120   5.916   6.159  0.0817  0.0273 -0.3303
15027SOL    HW146522   6.191   5.854   6.148  1.9361  2.1565 -1.0785
15027SOL    HW246523   6.162   5.996   6.190 -2.0850  1.1393 -0.0729
15028SOL     OW46524   1.461   3.567  11.229 -0.2883  0.0431  0.6843
15028SOL    HW146525   1.451   3.523  11.314  1.2369  2.6813  2.3822
15028SOL    HW246526   1.380   3.616  11.218  0.3281  1.4385  1.8384
15029SOL     OW46527   4.439   3.771   5.270  0.2116  0.5768 -0.0017
15029SOL    HW146528   4.461   3.747   5.360  1.2448  0.3120 -0.3143
15029SOL    HW246529   4.485   3.707   5.216  0.4712  1.3789 -0.7560
15030SOL     OW46530   5.663   2.583  10.360  0.0541 -0.2804  0.6588
15030SOL    HW146531   5.732   2.542  10.412  2.6449 -0.0777 -2.3342
15030SOL    HW246532   5.662   2.533  10.278  0.3974  2.8972 -1.4580
15031SOL     OW46533   6.705   5.971   3.502 -0.3172  0.0091  0.1915
15031SOL    HW146534   6.676   5.880   3.492  0.4733 -0.2250 -0.0123
15031SOL    HW246535   6.731   5.997   3.413 -2.8192  1.2500 -0.2860
15032SOL     OW46536   4.976   0.458   8.614  0.0131  0.4468  0.0460
15032SOL    HW146537   4.911   0.501   8.669  1.2386  3.2307 -0.5119
15032SOL    HW246538   5.049   0.440   8.674  0.3539  1.2000 -0.1233
15033SOL     OW46539   1.419   0.649   6.389 -0.3157 -0.2497  0.6698
15033SOL    HW146540   1.387   0.693   6.468 -0.1345 -0.1327  0.6788
15033SOL    HW246541   1.456   0.719   6.336 -1.2874 -0.1801  0.0490
15034SOL     OW46542   0.058   5.118   4.237 -0.1133  0.4198 -0.5222
15034SOL    HW146543   0.132   5.150   4.290 -0.7475  0.5554  0.3088
15034SOL    HW246544  -0.005   5.190   4.237 -0.8850 -0.2297  0.0606
15035SOL     OW46545   3.071   7.431   2.221 -0.2290  0.0167 -0.8552
15035SOL    HW146546   3.074   7.409   2.314 -0.2226  0.4881 -0.7388
15035SOL    HW246547   3.058   7.526   2.220  1.9144  0.3538 -1.3220
15036SOL     OW46548   0.163   3.427   7.662 -0.0123 -0.7289  0.5736
15036SOL    HW146549   0.116   3.347   7.686  0.1809 -1.5731 -1.6591
15036SOL    HW246550   0.109   3.467   7.594  0.0562  0.9304  1.4322
15037SOL     OW46551   1.412   4.039   9.310 -0.5597 -0.1363  0.6921
15037SOL    HW146552   1.361   4.005   9.384 -0.4963  1.5544  1.5420
15037SOL    HW246553   1.470   4.104   9.348  1.5903 -1.3005 -0.4256
15038SOL     OW46554   0.678   0.962   9.931 -0.0513  1.3041  0.1699
15038SOL    HW146555   0.592   1.003   9.924 -0.5725  0.2719  0.2023
15038SOL    HW246556   0.673   0.909  10.011 -0.8193 -1.8157 -1.7341
15039SOL     OW46557   3.032   5.655   0.654 -0.1805  0.2873 -0.1077
15039SOL    HW146558   2.991   5.648   0.568 -1.0936 -1.1801  0.4229
15039SOL    HW246559   3.096   5.584   0.657  1.1057  1.4031 -0.2089
15040SOL     OW46560   4.104   6.148   4.786 -0.0087  0.2359 -0.2841
15040SOL    HW146561   4.137   6.236   4.766 -1.6323  0.8529 -0.3237
15040SOL    HW246562   4.109   6.142   4.881  1.4728 -0.2142 -0.3550
15041SOL     OW46563   7.549   7.356   4.128 -0.8851 -0.0790 -0.6678
15041SOL    HW146564   7.489   7.314   4.189  0.0166  0.6321  0.7576
15041SOL    HW246565   7.636   7.326   4.155 -0.3274  1.6519 -0.4061
15042SOL     OW46566   0.344   7.083   3.040  0.3874 -0.2626  0.3056
15042SOL    HW146567   0.429   7.121   3.018 -0.0378  0.6568  0.2251
15042SOL    HW246568   0.292   7.156   3.071 -0.6159 -0.6873 -0.3414
15043SOL     OW46569   0.015   2.268   8.356  0.7628  0.8548  0.0026
15043SOL    HW146570  -0.053   2.277   8.290 -0.0607  1.3106  0.8882
15043SOL    HW246571   0.018   2.174   8.375  0.9431  0.7339 -0.6011
15044SOL     OW46572   0.818   2.587   8.314  0.0729 -0.6570  0.2535
15044SOL    HW146573   0.871   2.548   8.245 -0.6816 -0.8561 -0.2235
15044SOL    HW246574   0.729   2.588   8.279 -0.3826 -1.0537  1.3425
15045SOL     OW46575   0.037   0.005   8.591 -0.1365  0.0404 -0.6514
15045SOL    HW146576   0.097   0.050   8.650  0.0058  1.3073 -1.7075
15045SOL    HW246577  -0.049   0.040   8.614 -0.0237  0.9320 -1.4829
15046SOL     OW46578   4.085   1.940   0.633 -0.1039 -0.4149 -0.1274
15046SOL    HW146579   4.083   2.035   0.650 -2.0304 -0.5551  0.7391
15046SOL    HW246580   3.999   1.909   0.664  0.2919 -2.3670 -0.8768
15047SOL     OW46581   2.621   3.119  12.230 -0.3790  0.0550 -0.3575
15047SOL    HW146582   2.631   3.112  12.325 -1.8893  1.6528 -0.0272
15047SOL    HW246583   2.709   3.140  12.198  0.5230 -2.1900  0.4250
15048SOL     OW46584   5.253   3.219   2.248 -0.0906  0.2744  0.5585
15048SOL    HW146585   5.197   3.149   2.281  0.8507 -1.6185 -1.5682
15048SOL    HW246586   5.198   3.267   2.186  0.4245 -1.4045 -1.3095
15049SOL     OW46587   5.455   4.267   8.466  0.3978 -0.0171  0.0770
15049SOL    HW146588   5.534   4.286   8.517 -0.0207 -0.0440  0.7437
15049SOL    HW246589   5.480   4.195   8.408  1.2189  0.7720 -0.5795
15050SOL     OW46590   5.194   7.484   3.456 -0.0209 -0.1396 -0.4693
15050SOL    HW146591   5.232   7.401   3.484 -1.5992 -0.4579  0.8597
15050SOL    HW246592   5.262   7.524   3.401  0.8459 -2.1942 -0.9841
15051SOL     OW46593   0.287   5.130   1.644 -0.5168  0.2094 -0.0285
15051SOL    HW146594   0.340   5.116   1.723 -0.3300  1.7646  0.1498
15051SOL    HW246595   0.220   5.193   1.671 -1.0004  0.0812 -0.8884
15052SOL     OW46596   1.409   4.468  10.077  0.1995  0.2608  0.2648
15052SOL    HW146597   1.409   4.381  10.039 -0.8222 -0.2041  1.2585
15052SOL    HW246598   1.487   4.470  10.133  0.3818  0.0918  0.0166
15053SOL     OW46599   4.482   0.477   3.417 -0.8153 -0.0042  0.2489
15053SOL    HW146600   4.575   0.497   3.425 -1.0535  1.1371  0.2782
15053SOL    HW246601   4.473   0.391   3.458 -0.1749  0.9709  2.6320
15054SOL     OW46602   4.377   6.984   6.358  0.1590  0.2866 -0.5374
15054SOL    HW146603   4.443   6.940   6.305 -1.2267 -0.9975 -1.2727
15054SOL    HW246604   4.340   6.915   6.412 -3.9231 -0.2816 -3.5845
15055SOL     OW46605   7.338   0.541   9.625 -0.1749 -1.0343  0.2698
15055SOL    HW146606   7.365   0.456   9.590  1.0371  0.0915 -1.7134
15055SOL    HW246607   7.384   0.548   9.708  1.2923 -1.5259 -0.4612
15056SOL     OW46608   0.452   6.250   9.730 -0.0266 -0.0099  0.6608
15056SOL    HW146609   0.455   6.211   9.817 -0.9708  1.2943  1.3154
15056SOL    HW246610   0.467   6.343   9.745  0.4985  0.1419 -0.6617
15057SOL     OW46611   5.271   5.273   4.068  0.0036  0.2066 -0.1896
15057SOL    HW146612   5.335   5.247   4.001 -0.2694 -2.7687  0.5745
15057SOL    HW246613   5.321   5.328   4.128  0.9970  0.5671 -1.2922
15058SOL     OW46614   1.163   0.260   6.109 -0.5432  0.2996  0.3566
15058SOL    HW146615   1.144   0.297   6.024  2.2178  1.2577  0.0514
15058SOL    HW246616   1.145   0.330   6.171 -1.0468  0.1309  0.4024
15059SOL     OW46617   7.684   7.911   6.141  0.0564 -0.6296  0.1892
15059SOL    HW146618   7.715   7.836   6.192 -0.5796 -0.3060  1.0517
15059SOL    HW246619   7.656   7.975   6.205 -0.5970 -0.1425 -0.5645
15060SOL     OW46620   4.063   4.664   3.028  0.2511 -0.1605 -0.0654
15060SOL    HW146621   4.042   4.752   2.998  0.4246 -0.5066 -1.2279
15060SOL    HW246622   3.995   4.608   2.989  0.9787 -0.7302 -0.5400
15061SOL     OW46623   1.149   5.429   3.737 -0.0172  0.1979  0.3165
15061SOL    HW146624   1.081   5.440   3.804 -0.1431 -1.3859  0.4864
15061SOL    HW246625   1.106   5.379   3.668  0.7023  0.0386 -0.0184
15062SOL     OW46626   0.323   1.671  11.841 -0.1074  0.0986 -0.0808
15062SOL    HW146627   0.415   1.693  11.856 -0.0417  0.6391 -1.1158
15062SOL    HW246628   0.286   1.659  11.928  0.8862  0.1028  0.3577
15063SOL     OW46629   6.998   0.642  11.874 -0.5974  0.0676  0.5522
15063SOL    HW146630   6.973   0.557  11.910  2.9348 -1.4854 -0.3173
15063SOL    HW246631   7.065   0.675  11.935 -0.9615  1.6466  0.1504
15064SOL     OW46632   7.040   4.575  10.391  0.1032 -0.8667 -0.1903
15064SOL    HW146633   7.085   4.519  10.327  1.0288 -1.4636  0.9416
15064SOL    HW246634   7.038   4.523  10.471 -0.3634  0.1517  0.4795
15065SOL     OW46635   0.283   6.965   5.273  0.2249 -0.0436 -0.8496
15065SOL    HW146636   0.253   6.934   5.359 -0.1277 -0.3704 -1.0842
15065SOL    HW246637   0.217   6.931   5.212  0.1901  0.6210 -1.1905
15066SOL     OW46638   2.382   3.735   2.840 -0.2299  0.4032 -0.0699
15066SOL    HW146639   2.402   3.817   2.885 -1.0283  0.9787 -0.7396
15066SOL    HW246640   2.393   3.668   2.908 -0.0568  1.1021  0.6147
15067SOL     OW46641   0.492   7.204   3.376 -0.0009 -0.1768 -0.0606
15067SOL    HW146642   0.507   7.116   3.341  0.5336 -0.6302  1.2438
15067SOL    HW246643   0.403   7.225   3.350  0.5248 -0.2804 -2.0761
15068SOL     OW46644   7.945   3.341   6.403  0.9802  0.6816 -0.2179
15068SOL    HW146645   7.930   3.258   6.357 -2.8638  1.1542 -0.1424
15068SOL    HW246646   7.903   3.328   6.489  1.8721  2.1492  0.4736
15069SOL     OW46647   3.487   6.459   7.997  0.0834  0.3859  0.3879
15069SOL    HW146648   3.518   6.453   8.087 -2.0446 -0.8568  1.0928
15069SOL    HW246649   3.489   6.368   7.965 -1.0912  0.5250 -0.1192
15070SOL     OW46650   2.031   3.459   9.839  0.5826 -0.2390  0.3624
15070SOL    HW146651   2.042   3.396   9.768 -1.1648 -0.7837  0.5384
15070SOL    HW246652   1.947   3.501   9.822  1.3477  1.5205  0.6859
15071SOL     OW46653   3.501   5.535   5.348  0.1248  0.9320  0.8460
15071SOL    HW146654   3.447   5.461   5.319 -0.4174  1.2179  1.1153
15071SOL    HW246655   3.590   5.511   5.323 -0.1275  0.4526  0.3977
15072SOL     OW46656   7.433   4.767   5.154  0.0261 -0.4543 -0.5724
15072SOL    HW146657   7.399   4.773   5.064 -0.1497  0.5123 -0.4529
15072SOL    HW246658   7.527   4.777   5.144  0.4443 -3.5868 -0.9523
15073SOL     OW46659   2.405   7.276  10.567 -0.2278  0.3605  0.0607
15073SOL    HW146660   2.407   7.194  10.615  0.3206  0.8191  0.8435
15073SOL    HW246661   2.323   7.273  10.518  0.3235 -1.1581 -0.8508
15074SOL     OW46662   1.815   7.813   9.372 -0.6016 -0.1656  0.2603
15074SOL    HW146663   1.795   7.906   9.379  1.1836  0.2761  0.0494
15074SOL    HW246664   1.903   7.804   9.409 -0.6739 -1.7494  0.1416
15075SOL     OW46665   1.645   4.399   8.331 -0.3483 -0.2393 -0.7219
15075SOL    HW146666   1.724   4.351   8.304 -0.1318  0.4170 -1.2884
15075SOL    HW246667   1.642   4.474   8.272 -0.9799  0.1532 -0.1971
15076SOL     OW46668   4.056   1.522   0.689  0.2787  0.3407 -0.0902
15076SOL    HW146669   4.062   1.502   0.782 -1.0531 -1.6639 -0.3724
15076SOL    HW246670   3.983   1.468   0.657  1.3796  0.1413 -2.5090
15077SOL     OW46671   3.167   7.732   8.554  0.0340 -0.0412 -0.3373
15077SOL    HW146672   3.096   7.670   8.572 -0.1903 -0.6484 -2.9168
15077SOL    HW246673   3.176   7.731   8.459  2.8171  0.8288 -0.1682
15078SOL     OW46674   4.707   4.692   4.043 -0.6065 -0.8279 -0.1258
15078SOL    HW146675   4.639   4.697   4.111 -0.3114 -2.4694  0.3259
15078SOL    HW246676   4.777   4.748   4.075 -1.1438 -0.2757  0.1112
15079SOL     OW46677   3.422   2.195  10.778  0.5231  0.4009  0.0752
15079SOL    HW146678   3.390   2.154  10.697  1.1475 -0.4599  0.2530
15079SOL    HW246679   3.412   2.289  10.762 -2.1501  0.2168  0.1263
15080SOL     OW46680   4.477   4.089   3.876 -0.2372 -0.3827  0.1364
15080SOL    HW146681   4.514   4.177   3.876 -1.2256  0.0596 -1.3451
15080SOL    HW246682   4.445   4.076   3.965  2.4030 -0.3592  1.1810
15081SOL     OW46683   6.192   4.598   3.384  0.0629 -0.5880 -0.5206
15081SOL    HW146684   6.287   4.613   3.382  0.2132 -1.5520 -1.5600
15081SOL    HW246685   6.155   4.686   3.390  1.0283 -0.2545  1.1760
15082SOL     OW46686   7.482   4.838  11.608  0.5115 -0.2674  0.1917
15082SOL    HW146687   7.402   4.806  11.566  1.2912  0.9342 -2.4055
15082SOL    HW246688   7.551   4.780  11.575  1.4349  1.8743 -1.9170
15083SOL     OW46689   2.663   5.414   5.928 -0.2582  0.3766 -0.0432
15083SOL    HW146690   2.744   5.395   5.975  0.2006  0.5139 -0.7629
15083SOL    HW246691   2.667   5.359   5.850 -0.7415  0.5714 -0.2092
15084SOL     OW46692   7.286   7.390   6.034  0.3765 -0.0093 -0.0575
15084SOL    HW146693   7.203   7.341   6.035  0.1668  0.3356 -0.2230
15084SOL    HW246694   7.260   7.480   6.055  0.4111  0.5428 -2.2135
15085SOL     OW46695   6.863   3.217   7.361 -0.5044 -0.5464 -0.5428
15085SOL    HW146696   6.871   3.274   7.285 -0.4823  0.1281 -0.0472
15085SOL    HW246697   6.881   3.274   7.436  1.2117 -1.5689 -0.1139
15086SOL     OW46698   7.563   5.278   7.161  0.1340  0.1403 -0.0625
15086SOL    HW146699   7.541   5.288   7.068  1.5274  0.0435 -0.4282
15086SOL    HW246700   7.658   5.291   7.164  0.0617  0.4388  1.4013
15087SOL     OW46701   6.535   0.108   0.459 -0.3494  0.0551  0.4301
15087SOL    HW146702   6.443   0.092   0.436 -0.4626  2.4225 -1.1606
15087SOL    HW246703   6.543   0.203   0.458  1.5941 -0.0017  2.9536
15088SOL     OW46704   1.001   4.194   4.613 -0.0582  0.0420 -0.3737
15088SOL    HW146705   0.937   4.201   4.543 -0.1294 -0.7396 -0.3963
15088SOL    HW246706   0.989   4.273   4.666 -1.5832 -0.4681  0.0851
15089SOL     OW46707   2.251   2.620  10.707  0.0600 -0.3039 -0.2055
15089SOL    HW146708   2.182   2.584  10.761  0.5940  0.0093  0.7058
15089SOL    HW246709   2.266   2.708  10.741  1.3564 -0.5974  0.0644
15090SOL     OW46710   2.777   2.463   2.544  0.5669 -0.6157 -0.1156
15090SOL    HW146711   2.784   2.452   2.449 -3.3134  1.1980 -0.8306
15090SOL    HW246712   2.709   2.401   2.570  0.3650  0.1033  1.1552
15091SOL     OW46713   3.178   2.531   2.715  0.1562  0.5293  0.2327
15091SOL    HW146714   3.115   2.462   2.735  1.2076 -0.4012  0.4454
15091SOL    HW246715   3.216   2.505   2.632 -0.1760  1.4189 -0.2090
15092SOL     OW46716   2.801   3.159   6.826  0.0429 -0.0463  0.6891
15092SOL    HW146717   2.873   3.106   6.858 -0.5147 -1.4079 -0.2109
15092SOL    HW246718   2.727   3.099   6.822 -0.6345  0.8137 -0.3118
15093SOL     OW46719   1.017   1.412   2.655 -0.2582  0.1850  0.1886
15093SOL    HW146720   1.102   1.378   2.627 -0.1676 -0.0217  0.7033
15093SOL    HW246721   1.009   1.496   2.611  1.1637  1.2116  1.7583
15094SOL     OW46722   4.562   6.822   5.206  0.2279  0.1197  0.7660
15094SOL    HW146723   4.526   6.908   5.184  0.3124  0.0311  0.2773
15094SOL    HW246724   4.652   6.839   5.233  1.0171 -0.0584 -1.6024
15095SOL     OW46725   1.671   3.254   8.252  0.4721  0.6604 -0.3870
15095SOL    HW146726   1.734   3.182   8.253 -0.7465 -0.7741 -4.8227
15095SOL    HW246727   1.717   3.326   8.208  0.3190  1.1238  0.1964
15096SOL     OW46728   6.774   1.233   0.223 -0.0712 -0.5465 -0.3099
15096SOL    HW146729   6.741   1.215   0.135 -0.4778 -1.2135 -0.0293
15096SOL    HW246730   6.835   1.306   0.212 -1.6958  0.7729 -0.8217
15097SOL     OW46731   1.669   2.283  11.202  0.0571  0.0013  0.0240
15097SOL    HW146732   1.672   2.267  11.107 -1.5012  0.2150 -0.0915
15097SOL    HW246733   1.756   2.314  11.224  0.4622 -0.1141 -1.3417
15098SOL     OW46734   6.204   5.881   1.533  0.1892 -0.5105  0.3070
15098SOL    HW146735   6.234   5.968   1.558  0.3452 -0.2200 -0.8005
15098SOL    HW246736   6.234   5.871   1.442 -0.2627 -1.5165  0.2544
15099SOL     OW46737   7.566   0.540  11.322  0.4222  0.6906 -0.3282
15099SOL    HW146738   7.492   0.489  11.356  0.3678  1.3091  0.5183
15099SOL    HW246739   7.642   0.503  11.367  1.0292 -1.5328 -2.8949
15100SOL     OW46740   4.781   2.684   8.796  0.5112 -0.1875 -0.0054
15100SOL    HW146741   4.823   2.761   8.756  0.6049 -0.7607 -1.0589
15100SOL    HW246742   4.716   2.720   8.855  0.9340  0.7075 -0.0644
15101SOL     OW46743   5.708   0.037   3.427  0.0746  0.6139  0.8141
15101SOL    HW146744   5.771  -0.017   3.379  1.2493  2.4814  0.1570
15101SOL    HW246745   5.718   0.010   3.518 -0.3685 -1.2200  0.3567
15102SOL     OW46746   1.352   4.216  12.304 -0.0199 -0.5014 -0.1369
15102SOL    HW146747   1.421   4.189  12.243 -0.0212 -0.8546  0.0148
15102SOL    HW246748   1.337   4.308  12.283  1.0037 -0.2162  0.3115
15103SOL     OW46749   7.194   2.820   6.978  0.7722  0.1312  0.2162
15103SOL    HW146750   7.162   2.907   6.955  1.3532  0.3670  0.2824
15103SOL    HW246751   7.290   2.828   6.974  0.8305 -0.4806  0.3058
15104SOL     OW46752   4.007   2.321  10.657  0.2013 -0.6238 -0.3606
15104SOL    HW146753   3.973   2.399  10.613  0.1628 -0.7052 -0.4780
15104SOL    HW246754   4.000   2.340  10.750  1.1387 -0.0758 -0.3859
15105SOL     OW46755   6.087   5.843   2.316  0.6035 -0.2857 -0.2566
15105SOL    HW146756   5.996   5.814   2.307  0.4265  0.7698 -2.3942
15105SOL    HW246757   6.082   5.925   2.364 -0.1631  2.1338 -4.0726
15106SOL     OW46758   6.550   1.432   7.708 -0.0312 -0.5477 -0.0887
15106SOL    HW146759   6.552   1.484   7.788 -1.7530 -0.2863 -0.1751
15106SOL    HW246760   6.465   1.452   7.669  0.5519 -1.0930 -1.7010
15107SOL     OW46761   6.078   5.840   2.904 -0.1798  0.2042 -0.2020
15107SOL    HW146762   6.006   5.793   2.862  0.5631 -0.5937 -0.5969
15107SOL    HW246763   6.038   5.922   2.935 -1.3270 -0.3651 -0.1276
15108SOL     OW46764   4.944   0.298   4.664 -0.3841 -0.1083 -0.0756
15108SOL    HW146765   4.850   0.315   4.660 -0.6378 -1.3219  0.4011
15108SOL    HW246766   4.951   0.203   4.678  0.8973  0.0403  0.4212
15109SOL     OW46767   5.991   3.969   5.481 -0.3029  0.0489  0.1892
15109SOL    HW146768   6.021   4.037   5.420  0.3483  0.5191  1.0214
15109SOL    HW246769   5.947   3.905   5.425  0.8002  0.1745 -0.8608
15110SOL     OW46770   3.089   4.651   1.521 -0.3981  0.1872  0.1584
15110SOL    HW146771   3.179   4.636   1.550 -0.3753  2.0029  1.1268
15110SOL    HW246772   3.089   4.740   1.487 -1.5846 -0.2073 -0.9338
15111SOL     OW46773   2.086   5.082   1.902 -0.2353 -0.6914  0.1336
15111SOL    HW146774   2.146   5.080   1.976 -0.4627  0.4136  0.3710
15111SOL    HW246775   2.002   5.054   1.939  0.0124 -1.7249 -0.0797
15112SOL     OW46776   6.737   0.297   4.799 -0.1765  0.7321 -0.6062
15112SOL    HW146777   6.691   0.290   4.882  1.2577  2.7920  0.4609
15112SOL    HW246778   6.811   0.236   4.808  0.5149  1.6524  0.0407
15113SOL     OW46779   3.893   5.855   5.366 -0.1617 -0.3475  0.6305
15113SOL    HW146780   3.956   5.927   5.375 -0.4694  0.0146  0.0065
15113SOL    HW246781   3.915   5.815   5.281 -0.7357 -0.2488  0.4342
15114SOL     OW46782   3.397   7.028   0.570  0.3259  0.0913 -0.2008
15114SOL    HW146783   3.437   7.108   0.605  1.9385 -0.4494 -0.7178
15114SOL    HW246784   3.335   7.059   0.505 -0.0555  0.9663  0.5547
15115SOL     OW46785   7.580   3.973   0.877 -0.4189  0.2664  0.0282
15115SOL    HW146786   7.675   3.963   0.889 -0.3926 -0.3333 -0.5922
15115SOL    HW246787   7.567   4.068   0.870  0.0575  0.3906  0.6832
15116SOL     OW46788   2.493   0.215   6.054 -0.0530  0.3272  0.2070
15116SOL    HW146789   2.547   0.281   6.010  0.1779  0.1244  0.1853
15116SOL    HW246790   2.406   0.254   6.056 -0.4668 -0.3111 -1.9178
15117SOL     OW46791   5.180   4.748   1.397 -0.7431  0.0700 -0.4979
15117SOL    HW146792   5.202   4.672   1.451 -0.1556  1.2139  0.9380
15117SOL    HW246793   5.165   4.712   1.310  0.0352 -1.6313  0.0304
15118SOL     OW46794   6.475   4.487  11.689 -0.8655  0.7801 -0.1494
15118SOL    HW146795   6.462   4.575  11.653  1.3988  1.9170  1.6039
15118SOL    HW246796   6.389   4.445  11.680 -2.4382  3.6595  0.2557
15119SOL     OW46797   7.743   5.244   6.876 -0.1621  0.4304 -0.2117
15119SOL    HW146798   7.708   5.160   6.903  1.4904  0.1016  1.0712
15119SOL    HW246799   7.823   5.223   6.828  0.2312  1.2513  0.0510
15120SOL     OW46800   5.685   4.840   1.530  0.2996  0.3223 -0.3037
15120SOL    HW146801   5.731   4.844   1.446  0.7329  0.8149 -0.0524
15120SOL    HW246802   5.596   4.867   1.510  0.6103  1.2650 -0.4719
15121SOL     OW46803   1.350   5.312  10.097 -0.5013  0.4119  0.7604
15121SOL    HW146804   1.336   5.274  10.184 -1.8218  0.4931  0.6156
15121SOL    HW246805   1.350   5.406  10.111  0.1054  0.4117  0.7752
15122SOL     OW46806   3.443   3.251   7.503 -0.3493 -0.0327 -0.2068
15122SOL    HW146807   3.439   3.295   7.418  0.5578 -2.9978 -1.9563
15122SOL    HW246808   3.530   3.270   7.536 -0.0520 -0.2615 -0.8327
15123SOL     OW46809   2.283   4.344   2.161  0.2201  0.0580 -0.3447
15123SOL    HW146810   2.203   4.293   2.151 -0.9376  1.6046  0.6080
15123SOL    HW246811   2.310   4.366   2.072 -0.3641 -0.5423 -0.6768
15124SOL     OW46812   6.438   0.007   7.829  0.3360 -0.6179 -0.2057
15124SOL    HW146813   6.351  -0.015   7.864  0.4102 -1.3548 -0.4629
15124SOL    HW246814   6.498  -0.018   7.899  0.4652 -1.8485 -0.7340
15125SOL     OW46815   6.681   3.332   2.355 -0.3142  0.5883 -0.3663
15125SOL    HW146816   6.774   3.322   2.332  0.2423  3.4938  0.2636
15125SOL    HW246817   6.634   3.314   2.274  0.7761 -0.6696 -0.7628
15126SOL     OW46818   1.959   2.058   5.995 -0.1039 -0.5248  0.4116
15126SOL    HW146819   1.900   2.131   5.980 -1.2403 -0.8956  2.6909
15126SOL    HW246820   1.965   2.014   5.910 -0.9853  1.0280 -0.4969
15127SOL     OW46821   5.821   1.481   5.289 -0.0698  0.1546 -0.1232
15127SOL    HW146822   5.830   1.446   5.200 -0.1621 -0.8417  0.2552
15127SOL    HW246823   5.911   1.489   5.321 -0.0948 -0.8930  0.2280
15128SOL     OW46824   4.686   3.103   3.330 -0.2967 -0.6481  0.0257
15128SOL    HW146825   4.627   3.071   3.262 -0.0825 -1.9422  0.4210
15128SOL    HW246826   4.699   3.028   3.387  1.8548 -0.4571 -0.1347
15129SOL     OW46827   7.442   6.325   8.569  0.1087 -0.2012 -0.3479
15129SOL    HW146828   7.464   6.398   8.511  0.3372  0.5951  0.7084
15129SOL    HW246829   7.516   6.264   8.561  0.5757  0.3387 -0.2153
15130SOL     OW46830   4.237   5.749   2.328 -0.2939  0.3705  0.4122
15130SOL    HW146831   4.198   5.793   2.404 -0.5849  1.2346 -0.2202
15130SOL    HW246832   4.196   5.662   2.328 -2.0690  1.1451 -0.0638
15131SOL     OW46833   7.335   3.872   5.445 -0.0216  0.0141 -0.0059
15131SOL    HW146834   7.309   3.817   5.371  1.1126  0.9941 -1.1774
15131SOL    HW246835   7.430   3.875   5.440  0.1518 -0.7835  2.1755
15132SOL     OW46836   4.498   1.989   4.386 -0.6424 -0.3594  0.1524
15132SOL    HW146837   4.405   1.970   4.403 -0.1946 -2.5439  0.4598
15132SOL    HW246838   4.505   1.986   4.291 -0.7519 -1.0833  0.1555
15133SOL     OW46839   3.759   3.244   5.426  0.1261 -0.1257  0.5338
15133SOL    HW146840   3.842   3.279   5.393  0.2795 -1.2097 -0.2697
15133SOL    HW246841   3.694   3.271   5.361 -0.0729  0.2697  0.8919
15134SOL     OW46842   6.744   4.549   9.819  0.4910  0.2893  0.1634
15134SOL    HW146843   6.668   4.569   9.873 -0.4863  0.6256 -1.2625
15134SOL    HW246844   6.815   4.535   9.881 -1.0147 -1.4147  1.6481
15135SOL     OW46845   0.269   3.126   8.128 -0.4791  0.2041 -0.1757
15135SOL    HW146846   0.272   3.163   8.216 -2.1022  0.2171 -0.0789
15135SOL    HW246847   0.214   3.048   8.137 -2.4346  1.3409 -1.5042
15136SOL     OW46848   3.458   0.399   8.508 -0.4344 -0.4351  0.0603
15136SOL    HW146849   3.384   0.345   8.478  0.8124 -2.5356  0.5566
15136SOL    HW246850   3.427   0.439   8.589 -1.0157 -1.3830  0.3201
15137SOL     OW46851   5.508   7.209  11.669 -0.1283 -0.2884  0.3270
15137SOL    HW146852   5.556   7.288  11.693  0.0460 -0.2734 -0.0684
15137SOL    HW246853   5.571   7.138  11.679  0.7153 -0.0164 -2.4488
15138SOL     OW46854   6.167   5.323   7.929  0.0771  0.3559 -0.3832
15138SOL    HW146855   6.132   5.235   7.947 -0.0339  0.4776  0.0222
15138SOL    HW246856   6.093   5.381   7.946 -0.2034  0.4448 -1.8165
15139SOL     OW46857   2.509   2.085   7.360  0.9574 -0.0835  0.5100
15139SOL    HW146858   2.545   2.088   7.272 -0.8364 -1.4632 -0.3358
15139SOL    HW246859   2.536   2.167   7.400  1.0809  0.9695 -1.6066
15140SOL     OW46860   1.094   0.049   3.239 -0.1901 -0.4009  0.2691
15140SOL    HW146861   1.093   0.055   3.334  0.5215 -1.1556  0.3288
15140SOL    HW246862   1.031  -0.020   3.218 -1.0950  0.4467  0.1240
15141SOL     OW46863   1.273   6.013   2.618 -0.5583  0.2393  0.4075
15141SOL    HW146864   1.204   6.078   2.613 -0.7445 -0.0025 -0.2182
15141SOL    HW246865   1.354   6.064   2.624 -0.7416  0.5215  0.4952
15142SOL     OW46866   4.012   4.483   5.090  0.1273 -0.2374  0.0840
15142SOL    HW146867   3.918   4.477   5.109 -0.1199  1.9141 -0.2716
15142SOL    HW246868   4.050   4.518   5.171  0.1646  1.6646 -0.7123
15143SOL     OW46869   2.978   5.879   6.379  0.5030 -0.3849 -0.5727
15143SOL    HW146870   2.963   5.797   6.427 -0.3082 -1.4014 -2.4641
15143SOL    HW246871   2.909   5.881   6.313  0.0387  2.2334 -0.1157
15144SOL     OW46872   2.309   7.120   0.983  0.1722 -0.3759  0.4003
15144SOL    HW146873   2.252   7.043   0.987  0.0739 -0.2984  0.4862
15144SOL    HW246874   2.331   7.127   0.890 -1.6337  0.7952  0.0051
15145SOL     OW46875   5.189   1.247   5.145  0.5295  0.6591 -0.3790
15145SOL    HW146876   5.272   1.286   5.173  0.5760  0.2741  0.0463
15145SOL    HW246877   5.213   1.159   5.116  0.2296  0.4191  0.0773
15146SOL     OW46878   4.536   2.759  11.700  0.2243  0.2154  0.4944
15146SOL    HW146879   4.512   2.703  11.626 -0.8510  0.5582  0.5628
15146SOL    HW246880   4.535   2.700  11.776 -2.1755  0.5190  0.7722
15147SOL     OW46881   4.627   1.050   0.033 -0.2804  0.3551 -0.3151
15147SOL    HW146882   4.635   1.125  -0.026 -0.0425  0.1010 -0.6109
15147SOL    HW246883   4.547   1.006   0.004 -0.6167  0.6867  0.0877
15148SOL     OW46884   4.452   5.449  11.437  0.5944  0.0902 -0.1032
15148SOL    HW146885   4.392   5.483  11.503  3.5251  3.1142  1.3278
15148SOL    HW246886   4.484   5.367  11.474 -0.9423 -0.4322  0.1349
15149SOL     OW46887   6.215   2.767   8.596 -0.0070  0.2804  0.7461
15149SOL    HW146888   6.281   2.826   8.633 -0.7811  2.9988 -1.7880
15149SOL    HW246889   6.264   2.711   8.536  0.4883 -0.4871  1.8346
15150SOL     OW46890   5.101   0.334   5.584  0.3439 -0.2393  0.1104
15150SOL    HW146891   5.138   0.274   5.648  2.5275  2.3027  1.4063
15150SOL    HW246892   5.013   0.352   5.616  0.3747 -1.1992  0.7826
15151SOL     OW46893   1.342   1.993   3.818 -0.2494 -0.5416  0.5687
15151SOL    HW146894   1.343   1.899   3.798  0.9227 -0.3258 -0.4622
15151SOL    HW246895   1.430   2.023   3.798 -0.2230  0.5566  2.1106
15152SOL     OW46896   5.854   0.046   7.548  0.0728  0.5937 -0.0174
15152SOL    HW146897   5.870   0.141   7.549  3.3287  0.1308  0.2686
15152SOL    HW246898   5.858   0.020   7.640 -0.6991  0.1250 -0.1034
15153SOL     OW46899   0.486   3.823   1.385 -0.4773  0.3826 -0.2591
15153SOL    HW146900   0.495   3.899   1.329  1.4537  1.8086  1.7809
15153SOL    HW246901   0.576   3.792   1.397 -0.9890 -0.7787  0.8181
15154SOL     OW46902   3.832   7.369  11.674 -0.3219  0.2012  0.2250
15154SOL    HW146903   3.873   7.409  11.597  1.4351  2.1004  2.0358
15154SOL    HW246904   3.894   7.302  11.703 -0.4351  0.2888  0.6708
15155SOL     OW46905   2.753   3.859   6.227  0.3726 -0.0549 -0.4389
15155SOL    HW146906   2.763   3.926   6.295  0.0316  2.2113 -2.4993
15155SOL    HW246907   2.689   3.797   6.263 -0.0585  1.2604  1.1558
15156SOL     OW46908   1.673   0.448  10.630  0.5915 -0.1377 -0.3192
15156SOL    HW146909   1.587   0.427  10.665  0.6367  1.4077  0.7747
15156SOL    HW246910   1.722   0.366  10.637 -0.8133 -1.0965 -1.1517
15157SOL     OW46911   6.330   1.375   5.052  0.0887 -0.1503 -0.0560
15157SOL    HW146912   6.320   1.438   5.123  1.6020  0.0850 -0.0260
15157SOL    HW246913   6.359   1.294   5.094  0.3160 -0.2144 -0.3332
15158SOL     OW46914   2.101   0.698   3.546  0.2394 -0.0850  0.1124
15158SOL    HW146915   2.047   0.651   3.481  1.7146 -0.9320 -0.5648
15158SOL    HW246916   2.041   0.719   3.617 -0.7534 -2.0185 -0.0917
15159SOL     OW46917   6.421   7.591   8.588 -0.2385  0.2516 -0.1770
15159SOL    HW146918   6.492   7.617   8.529 -0.3555 -0.5710 -0.7011
15159SOL    HW246919   6.385   7.513   8.548  0.5481 -1.1402  1.6886
15160SOL     OW46920   5.021   2.792   7.536 -0.2137 -0.2537  0.5995
15160SOL    HW146921   5.111   2.823   7.538 -0.6578  1.1312  0.0627
15160SOL    HW246922   5.008   2.761   7.447 -1.0655  2.1533 -0.1852
15161SOL     OW46923   2.712   1.650   1.826 -0.1740  0.3827  0.2281
15161SOL    HW146924   2.690   1.566   1.866 -0.5349 -0.7102 -2.0993
15161SOL    HW246925   2.651   1.658   1.752  1.2609  1.6629 -0.8790
15162SOL     OW46926   2.930   1.540   7.198 -0.4527  0.1722 -0.4828
15162SOL    HW146927   2.836   1.524   7.193 -0.3771 -1.1711  1.2432
15162SOL    HW246928   2.969   1.470   7.146 -0.3513 -1.4153  1.5963
15163SOL     OW46929   7.730   2.201   2.185 -0.0714  0.3163  0.3184
15163SOL    HW146930   7.722   2.127   2.126  1.4960  0.2074  0.1908
15163SOL    HW246931   7.753   2.162   2.270  2.1510  0.6607 -0.0581
15164SOL     OW46932   0.736   0.131   4.148  0.0259  0.6160  0.2524
15164SOL    HW146933   0.744   0.205   4.089  0.7426 -0.3600 -0.9368
15164SOL    HW246934   0.770   0.163   4.232  1.6373  1.2562 -0.6004
15165SOL     OW46935   2.736   6.449  11.220 -0.5043 -0.2733 -0.0263
15165SOL    HW146936   2.805   6.383  11.211 -0.3885 -0.0266 -1.0373
15165SOL    HW246937   2.711   6.471  11.131  0.1268  1.7760  0.2546
15166SOL     OW46938   7.401   5.085   1.355  0.6909 -0.0089 -0.4719
15166SOL    HW146939   7.450   5.003   1.349  1.1607  0.2105  0.2345
15166SOL    HW246940   7.454   5.141   1.412  0.4815  0.8649 -1.1127
15167SOL     OW46941   2.958   6.331  10.865  0.5985 -0.2910  0.0098
15167SOL    HW146942   2.972   6.425  10.874  0.7032 -0.3087  0.0288
15167SOL    HW246943   2.872   6.324  10.824  0.0569 -0.2173  1.0981
15168SOL     OW46944   2.229   6.221   0.021 -0.0465 -0.1856  0.1557
15168SOL    HW146945   2.277   6.296  -0.015 -2.2245  0.7395 -0.9613
15168SOL    HW246946   2.199   6.250   0.106 -0.1500 -0.1221  0.0969
15169SOL     OW46947   2.022   7.550   6.280 -0.3614 -0.1019  0.3549
15169SOL    HW146948   2.077   7.629   6.280 -2.3771  1.4105 -0.3679
15169SOL    HW246949   2.074   7.484   6.234  0.5917  1.4453 -0.8935
15170SOL     OW46950   2.822   3.648  12.182  0.4866  0.3279  0.5123
15170SOL    HW146951   2.871   3.703  12.121  1.4277 -0.5005  0.4899
15170SOL    HW246952   2.832   3.559  12.146 -0.6891  0.0941  0.7392
15171SOL     OW46953   1.744   1.055  10.051  0.4108 -0.8446 -0.0056
15171SOL    HW146954   1.688   0.990  10.094 -0.9207 -0.0243 -0.4446
15171SOL    HW246955   1.702   1.071   9.967 -0.0724  1.5783  0.6258
15172SOL     OW46956   6.646   4.066   1.188 -0.4103  0.9566 -0.3413
15172SOL    HW146957   6.563   4.109   1.208 -1.8200 -0.4209 -2.6982
15172SOL    HW246958   6.660   4.084   1.095  0.1804 -1.5778 -0.8162
15173SOL     OW46959   2.376   5.390   7.027  0.0006 -0.0427  0.1633
15173SOL    HW146960   2.409   5.478   7.047  2.3840 -0.2677 -2.3034
15173SOL    HW246961   2.306   5.406   6.963 -1.2861  0.1178  1.5401
15174SOL     OW46962   7.122   4.893   9.077  0.1101 -0.4141  0.5644
15174SOL    HW146963   7.054   4.836   9.041 -0.4515  0.2874  0.4828
15174SOL    HW246964   7.167   4.928   9.000  0.2140 -0.4592  0.6042
15175SOL     OW46965   0.979   7.753  11.673  0.0100  0.3516  0.0588
15175SOL    HW146966   1.066   7.785  11.697  0.6642 -2.1798  1.3390
15175SOL    HW246967   0.930   7.753  11.754 -0.1683 -1.1872 -0.0257
15176SOL     OW46968   1.347   5.090   0.136  0.2607  0.1262 -0.2369
15176SOL    HW146969   1.376   5.061   0.223 -0.0877 -0.0664 -0.1824
15176SOL    HW246970   1.258   5.122   0.151  0.5089  0.8931 -0.3636
15177SOL     OW46971   7.760   5.891  10.028 -0.2256 -0.4468 -0.3626
15177SOL    HW146972   7.849   5.889  10.062  0.0077  1.0193 -0.8001
15177SOL    HW246973   7.709   5.935  10.096 -0.6069 -1.2184 -0.1414
15178SOL     OW46974   1.046   7.520  11.349 -0.2804  0.4330 -0.1358
15178SOL    HW146975   0.986   7.557  11.414  0.8659  1.1913  0.5134
15178SOL    HW246976   1.115   7.478  11.400  0.8031  1.2963 -0.8518
15179SOL     OW46977   4.152   5.366   9.246  0.1604 -0.5503 -0.4030
15179SOL    HW146978   4.154   5.440   9.185 -1.7598 -0.0048  0.1411
15179SOL    HW246979   4.183   5.292   9.193  1.0471  0.3930 -1.2715
15180SOL     OW46980   3.034   5.276   2.413  0.0082 -0.5909  0.0867
15180SOL    HW146981   3.048   5.328   2.334  0.6117  0.3468  0.7839
15180SOL    HW246982   2.946   5.299   2.441  0.6298  0.8763  0.9460
15181SOL     OW46983   5.090   7.183   7.682 -0.0276 -0.3413 -0.0414
15181SOL    HW146984   5.169   7.229   7.654  0.1485 -0.2990  0.5103
15181SOL    HW246985   5.025   7.205   7.615  0.7340 -1.3207 -1.1474
15182SOL     OW46986   7.360   4.302   7.350  0.1226 -0.2944 -0.3318
15182SOL    HW146987   7.325   4.346   7.427  0.6765 -1.5047  0.6524
15182SOL    HW246988   7.298   4.231   7.333  0.5886 -0.7204 -0.2936
15183SOL     OW46989   2.173   4.611   7.610 -0.2634  0.1742 -0.5961
15183SOL    HW146990   2.231   4.676   7.571 -0.7796  2.9595  2.8068
15183SOL    HW246991   2.232   4.548   7.652  0.3089  1.0804 -0.0152
15184SOL     OW46992   1.971   3.264   8.593  0.4779 -0.1024  0.4500
15184SOL    HW146993   1.906   3.217   8.646  0.5872 -2.3831 -1.3071
15184SOL    HW246994   2.047   3.270   8.650 -0.5274  0.7030  1.7860
15185SOL     OW46995   5.173   7.639  10.637 -0.1610 -0.6489 -0.3383
15185SOL    HW146996   5.214   7.650  10.723 -0.4828 -1.7521 -0.0277
15185SOL    HW246997   5.080   7.655  10.653 -0.0481  0.4441 -0.7528
15186SOL     OW46998   0.290   6.778   7.564  0.3772  0.5456  0.5542
15186SOL    HW146999   0.285   6.689   7.599 -1.2958  0.9274  1.3997
15186SOL    HW247000   0.321   6.831   7.638  0.5259  0.7929  0.3148
15187SOL     OW47001   5.050   6.140  11.314  0.3785  0.8198  0.5865
15187SOL    HW147002   5.011   6.166  11.397 -1.0915 -0.5987  0.3963
15187SOL    HW247003   5.054   6.220  11.263 -0.3015  1.4019  1.4145
15188SOL     OW47004   4.715   1.960   5.196 -0.1834  0.2924  0.7052
15188SOL    HW147005   4.745   2.048   5.218 -1.2970  1.5633 -2.3623
15188SOL    HW247006   4.796   1.910   5.182  0.5677  1.9565 -1.3418
15189SOL     OW47007   5.940   6.256  10.913  0.5774  0.1222 -0.1696
15189SOL    HW147008   5.996   6.212  10.977 -0.4126 -0.1363  0.5478
15189SOL    HW247009   5.904   6.331  10.961 -1.5343 -1.0383  0.1751
15190SOL     OW47010   0.062   4.795   2.185 -0.5416 -0.4103 -0.1021
15190SOL    HW147011   0.031   4.749   2.263  0.5449 -0.5793  0.2432
15190SOL    HW247012   0.018   4.751   2.113 -0.5010 -1.1600  0.3198
15191SOL     OW47013   4.137   6.091   0.162 -0.1218  0.2244 -0.5050
15191SOL    HW147014   4.052   6.074   0.204 -1.1370  1.0676 -2.1078
15191SOL    HW247015   4.170   6.004   0.140 -0.3441 -0.1408  0.5213
15192SOL     OW47016   2.464   6.701  11.260 -0.1321  0.0474 -0.3774
15192SOL    HW147017   2.530   6.651  11.308  1.0867  0.6894 -1.3423
15192SOL    HW247018   2.457   6.783  11.309  1.8702  1.1361 -1.7757
15193SOL     OW47019   6.327   7.148   3.800  0.0591 -0.1130 -0.2552
15193SOL    HW147020   6.301   7.056   3.794  0.1016 -0.1396 -0.0471
15193SOL    HW247021   6.257   7.195   3.755  0.3355 -0.2948 -0.8874
15194SOL     OW47022   0.362   0.352   0.464  0.1359  0.8146 -0.1110
15194SOL    HW147023   0.277   0.360   0.507 -0.0842  1.1543 -0.6007
15194SOL    HW247024   0.353   0.275   0.407  1.1391 -1.0390  2.0355
15195SOL     OW47025   7.270   2.139   5.892  0.8027  0.4214  0.0919
15195SOL    HW147026   7.245   2.152   5.800  0.6820  0.2133  0.0947
15195SOL    HW247027   7.361   2.167   5.896  0.7738  0.5386 -0.0671
15196SOL     OW47028   4.638   1.237   6.502 -0.2151  0.5507  0.4836
15196SOL    HW147029   4.704   1.168   6.514  0.4158  0.8732 -0.8916
15196SOL    HW247030   4.620   1.268   6.590  1.7876  0.7208  0.8955
15197SOL     OW47031   0.342   1.267   8.305 -0.0642 -0.5084 -0.1641
15197SOL    HW147032   0.324   1.291   8.214  0.5072  1.5724  0.2155
15197SOL    HW247033   0.273   1.312   8.354 -0.0114 -1.1340  0.4922
15198SOL     OW47034   6.633   5.172   0.042  0.4306  0.1682  0.2182
15198SOL    HW147035   6.689   5.151   0.117  0.6869  0.5988  0.1478
15198SOL    HW247036   6.564   5.106   0.045  0.9050 -0.3212  0.3425
15199SOL     OW47037   3.836   0.465   7.990 -0.0236 -0.7282  0.4612
15199SOL    HW147038   3.839   0.505   8.077  0.9000 -1.7977  0.9435
15199SOL    HW247039   3.927   0.445   7.970 -0.2220 -0.4807 -0.7751
15200SOL     OW47040   2.651   2.748   0.357  0.4053 -0.1797  0.6727
15200SOL    HW147041   2.689   2.705   0.280 -0.1367 -0.5705  0.6201
15200SOL    HW247042   2.721   2.804   0.390  0.4127  0.5331 -0.5120
15201SOL     OW47043   0.264   6.327   7.345  0.4275  0.1606  0.2812
15201SOL    HW147044   0.265   6.342   7.251 -0.0266  1.9124  0.5190
15201SOL    HW247045   0.345   6.278   7.362  0.6605  0.0728 -0.9632
15202SOL     OW47046   1.529   7.232   8.350  0.5684 -0.2070  0.1190
15202SOL    HW147047   1.529   7.278   8.434 -1.1609  2.7007 -1.3050
15202SOL    HW247048   1.461   7.165   8.359  0.7753 -0.2892  1.1902
15203SOL     OW47049   6.502   7.036   1.318 -0.0346 -0.2359  0.1797
15203SOL    HW147050   6.432   7.004   1.376 -0.0842  0.3505  0.4563
15203SOL    HW247051   6.547   6.957   1.288  0.0421 -0.5465  1.0859
15204SOL     OW47052   0.189   1.126  11.844  0.3955 -0.1536 -0.4052
15204SOL    HW147053   0.141   1.164  11.918  1.6223  0.2789  0.1976
15204SOL    HW247054   0.263   1.186  11.831  0.7722 -0.8041 -1.3075
15205SOL     OW47055   3.027   2.222  10.860 -0.0751 -0.0589  0.2266
15205SOL    HW147056   3.057   2.257  10.944 -2.5292  0.7438  0.8505
15205SOL    HW247057   2.972   2.147  10.883  0.1839 -0.5884 -0.7754
15206SOL     OW47058   0.929   3.926   5.010  0.9443 -0.2152 -0.0638
15206SOL    HW147059   0.986   4.001   4.989  0.2543  0.0257 -1.1927
15206SOL    HW247060   0.934   3.918   5.105  1.3708  1.0100  0.0428
15207SOL     OW47061   3.627   0.680   2.225  0.5865  0.4178  0.0788
15207SOL    HW147062   3.605   0.682   2.318  0.7632  1.2501  0.1123
15207SOL    HW247063   3.673   0.763   2.210  1.3403 -0.1023 -0.5610
15208SOL     OW47064   3.553   4.964   9.630  0.3619  0.2570 -0.6276
15208SOL    HW147065   3.601   4.894   9.674 -2.1239 -2.5557 -1.9991
15208SOL    HW247066   3.596   4.973   9.545  0.8711  0.6521 -0.3344
15209SOL     OW47067   7.039   7.141   3.182  1.0787 -0.1037 -0.1452
15209SOL    HW147068   7.066   7.113   3.094  0.5277  0.2795 -0.4370
15209SOL    HW247069   6.947   7.162   3.174  0.7124 -1.2099  0.8102
15210SOL     OW47070   0.330   4.419   7.296 -0.0372 -0.0487 -0.0116
15210SOL    HW147071   0.361   4.331   7.315 -1.9719 -0.1986  3.2226
15210SOL    HW247072   0.398   4.458   7.242  0.9725 -3.4044 -1.3864
15211SOL     OW47073   0.747   5.278   9.755 -0.0407 -0.0155 -0.3052
15211SOL    HW147074   0.820   5.299   9.813  0.1532 -2.3734  0.3662
15211SOL    HW247075   0.669   5.297   9.807  0.1199 -0.6067  0.1524
15212SOL     OW47076   5.714   4.669  12.288  0.0118  0.1630  0.6433
15212SOL    HW147077   5.626   4.632  12.291 -0.2488  0.5300 -1.1803
15212SOL    HW247078   5.716   4.734  12.359 -1.3994  0.5800  0.3264
15213SOL     OW47079   4.227   2.935   3.775 -0.0422 -0.0246  0.0306
15213SOL    HW147080   4.264   2.878   3.843 -1.7706  0.1641  1.1879
15213SOL    HW247081   4.143   2.964   3.811 -1.1777 -0.1684 -2.3380
15214SOL     OW47082   1.067   5.326   7.833  0.1317 -0.1633  0.6419
15214SOL    HW147083   1.155   5.310   7.799  1.0080  0.4985  2.4540
15214SOL    HW247084   1.066   5.420   7.853 -1.0212 -0.1497  0.5903
15215SOL     OW47085   4.936   7.160   0.421 -0.4726 -0.1531 -0.2469
15215SOL    HW147086   4.874   7.200   0.359 -0.3060  1.1946  0.4158
15215SOL    HW247087   4.926   7.066   0.407 -2.0361  0.0533 -0.7849
15216SOL     OW47088   5.061   6.929   1.282 -0.2591  0.2036  0.5263
15216SOL    HW147089   5.150   6.916   1.315 -0.2255 -0.6620  0.1088
15216SOL    HW247090   5.064   6.899   1.191 -1.0863 -0.2814  0.6447
15217SOL     OW47091   1.247   1.712   8.906  0.0639 -0.1228  0.2857
15217SOL    HW147092   1.314   1.765   8.862  0.8701 -0.5730  0.9263
15217SOL    HW247093   1.297   1.651   8.961 -0.9029  0.3342  1.7241
15218SOL     OW47094   5.584   1.604   1.175  0.1767 -0.1524 -0.0209
15218SOL    HW147095   5.498   1.618   1.216  0.3420 -0.9099  0.6019
15218SOL    HW247096   5.570   1.625   1.082  0.1937  3.2935  0.6096
15219SOL     OW47097   0.157   0.913   6.370 -0.0873  0.2509 -0.1032
15219SOL    HW147098   0.143   1.004   6.397  0.9076  0.7875 -1.2700
15219SOL    HW247099   0.133   0.912   6.277  2.7732  0.1375 -0.9629
15220SOL     OW47100   0.721   4.162  12.359  0.1790  0.0555  0.5695
15220SOL    HW147101   0.652   4.137  12.420  0.9480  0.3169  1.5821
15220SOL    HW247102   0.680   4.225  12.301 -0.3809  0.3749  1.2930
15221SOL     OW47103   6.563   2.676   0.325 -0.3258 -0.5156 -0.0774
15221SOL    HW147104   6.626   2.746   0.308 -1.2863  0.6671  1.0318
15221SOL    HW247105   6.584   2.644   0.413 -1.6376  0.3492  0.5863
15222SOL     OW47106   4.763   7.046  10.915  0.1885  0.2181  0.3709
15222SOL    HW147107   4.735   7.137  10.928  1.0135  0.2091  2.7084
15222SOL    HW247108   4.841   7.053  10.861 -1.0900  0.6654 -1.5138
15223SOL     OW47109   3.911   3.698   9.956 -0.2355 -0.2457 -0.2350
15223SOL    HW147110   3.968   3.687  10.032 -3.3775 -1.8192  2.1017
15223SOL    HW247111   3.916   3.614   9.910  0.5327  0.1934 -0.9798
15224SOL     OW47112   0.301   4.099   0.868 -0.0749  0.0222  0.4929
15224SOL    HW147113   0.224   4.141   0.831 -0.2219 -0.7616 -0.1152
15224SOL    HW247114   0.314   4.020   0.815 -0.5587 -1.3907  2.3503
15225SOL     OW47115   2.456   0.193  10.216 -0.0135 -0.0881  0.0901
15225SOL    HW147116   2.366   0.166  10.198 -0.2063 -0.3500  1.3776
15225SOL    HW247117   2.459   0.204  10.311  1.3799 -0.3008  0.0818
15226SOL     OW47118   7.147   2.084   5.134 -0.1806 -0.3878 -0.6725
15226SOL    HW147119   7.234   2.089   5.173 -0.0451 -0.0493 -1.0175
15226SOL    HW247120   7.141   2.160   5.077 -0.8737 -0.1507 -0.3028
15227SOL     OW47121   7.808   0.218   1.673  0.0052 -0.0595  0.2616
15227SOL    HW147122   7.899   0.210   1.700  0.8509 -0.5844 -2.5360
15227SOL    HW247123   7.803   0.303   1.630 -0.3644 -0.7548 -1.1277
15228SOL     OW47124   1.794   6.946   2.952 -0.2092 -0.1207 -0.0216
15228SOL    HW147125   1.873   6.999   2.942 -0.9587  1.6745  2.5853
15228SOL    HW247126   1.725   6.997   2.909 -0.1049 -1.5098 -1.9749
15229SOL     OW47127   4.182   5.215  11.411  0.2260 -0.1113  0.1931
15229SOL    HW147128   4.203   5.171  11.494 -0.2915 -0.2755  0.2423
15229SOL    HW247129   4.258   5.199  11.355  0.2657 -0.6289  0.3881
15230SOL     OW47130   6.473   0.895   8.062 -0.9521  0.8598 -0.7271
15230SOL    HW147131   6.464   0.856   8.149  1.8334  1.2878 -0.1223
15230SOL    HW247132   6.520   0.829   8.011 -0.1546  1.6575 -1.0472
15231SOL     OW47133   6.714   7.265   8.884  0.0684 -0.1620 -0.2013
15231SOL    HW147134   6.657   7.284   8.809  1.8133 -0.5702 -1.7050
15231SOL    HW247135   6.702   7.339   8.943  0.1251  1.1833 -1.8111
15232SOL     OW47136   7.616   3.319  10.044 -0.3815 -1.0852 -0.2521
15232SOL    HW147137   7.560   3.314   9.967 -1.0205 -0.9048  0.1924
15232SOL    HW247138   7.564   3.278  10.114  0.9801 -3.1620 -0.3499
15233SOL     OW47139   2.312   1.167   8.829  0.0216 -0.3873  0.0993
15233SOL    HW147140   2.385   1.123   8.786 -1.0025 -0.7534 -1.3353
15233SOL    HW247141   2.272   1.220   8.761  1.5231  3.3924  1.8443
15234SOL     OW47142   4.284   7.093   6.070 -0.5485 -0.0541 -0.3820
15234SOL    HW147143   4.313   7.067   6.157  0.8083  2.6619  0.0783
15234SOL    HW247144   4.348   7.054   6.010  0.4318  0.7159  0.1386
15235SOL     OW47145   5.133   7.935   1.070 -0.1022 -0.3552 -0.5518
15235SOL    HW147146   5.075   7.884   1.127 -0.1935  0.0361 -0.2908
15235SOL    HW247147   5.165   7.872   1.005 -2.3539 -0.1900 -1.9204
15236SOL     OW47148   4.406   6.021   1.602  0.7495  0.3389 -0.4443
15236SOL    HW147149   4.461   5.968   1.544 -0.0610  1.4265 -2.2929
15236SOL    HW247150   4.316   5.995   1.579  0.3082  2.6608 -1.6341
15237SOL     OW47151   1.105   4.273   5.847 -0.4387 -0.4699 -0.0512
15237SOL    HW147152   1.112   4.252   5.940 -2.1671 -1.1127 -0.0333
15237SOL    HW247153   1.071   4.193   5.807 -0.3836  0.0292 -1.1288
15238SOL     OW47154   7.484   2.373   8.841  0.1179 -0.2285 -0.6612
15238SOL    HW147155   7.546   2.340   8.776 -0.0953  1.0157 -1.5329
15238SOL    HW247156   7.529   2.448   8.880  0.0483 -0.6783  0.3051
15239SOL     OW47157   2.547   0.546   5.449 -0.4939  0.3350 -0.0295
15239SOL    HW147158   2.619   0.604   5.424  0.3519  0.0824  1.6814
15239SOL    HW247159   2.532   0.564   5.541 -1.0764 -1.2525  0.2271
15240SOL     OW47160   4.512   6.675   3.294 -0.1433 -0.2703  0.0954
15240SOL    HW147161   4.460   6.698   3.217 -0.2094 -1.3797 -0.2033
15240SOL    HW247162   4.528   6.759   3.338 -0.9860  0.2485 -0.5598
15241SOL     OW47163   3.468   2.588   5.927  0.5673 -0.3867 -0.2993
15241SOL    HW147164   3.404   2.554   5.990  0.1388  0.6104 -0.1737
15241SOL    HW247165   3.553   2.565   5.965  0.3022 -0.5281  0.2227
15242SOL     OW47166   5.696   3.542   4.394  0.0436 -0.4760 -0.1686
15242SOL    HW147167   5.736   3.618   4.353  1.7317 -0.6318  1.0606
15242SOL    HW247168   5.683   3.480   4.322 -0.5376  0.6267 -1.0366
15243SOL     OW47169   5.721   6.430   8.272  0.0007 -0.1859  0.1458
15243SOL    HW147170   5.773   6.468   8.201  0.0227 -0.1637  0.1738
15243SOL    HW247171   5.677   6.506   8.311  2.0130  0.2022  1.8626
15244SOL     OW47172   1.357   4.494   9.018 -0.5618  0.8221  0.0802
15244SOL    HW147173   1.328   4.450   8.938 -0.3703  0.9004 -0.0331
15244SOL    HW247174   1.451   4.475   9.023 -0.5703  0.8267  0.2815
15245SOL     OW47175   3.348   3.699   3.639  0.4704  0.0220  0.0869
15245SOL    HW147176   3.437   3.704   3.673 -0.0107 -1.1261  1.6464
15245SOL    HW247177   3.350   3.626   3.577  0.5312 -0.2745  0.4348
15246SOL     OW47178   5.938   1.859   7.045  0.5021 -0.1064  0.4676
15246SOL    HW147179   6.017   1.872   6.992  0.1957  0.9095  0.2455
15246SOL    HW247180   5.877   1.925   7.013 -0.1869 -0.4075  1.1415
15247SOL     OW47181   0.558   2.703  11.934  0.3649 -0.8839 -0.5501
15247SOL    HW147182   0.627   2.642  11.909  1.3833  0.4322 -1.0983
15247SOL    HW247183   0.574   2.780  11.879  0.4501  0.7051  1.5797
15248SOL     OW47184   2.890   1.102   5.702  0.0114  0.0477  0.0991
15248SOL    HW147185   2.905   1.173   5.764  1.0083  0.2558 -0.3598
15248SOL    HW247186   2.840   1.037   5.751  0.5616  0.3281  1.0428
15249SOL     OW47187   3.858   1.848   3.836 -0.3548 -0.7929 -0.2849
15249SOL    HW147188   3.885   1.803   3.916  1.1677  0.2045 -0.1835
15249SOL    HW247189   3.763   1.855   3.843 -0.4268 -2.2493  0.5913
15250SOL     OW47190   0.088   4.737  10.298 -0.7351 -0.3159 -0.0716
15250SOL    HW147191   0.103   4.831  10.286  1.2071 -0.6562 -0.7700
15250SOL    HW247192   0.164   4.708  10.349 -1.7259 -1.3823  0.8449
15251SOL     OW47193   7.574   1.105  11.783 -0.2015  0.3318 -0.2394
15251SOL    HW147194   7.522   1.082  11.860  0.8434  1.6374  0.9046
15251SOL    HW247195   7.531   1.059  11.711 -2.2441  0.4593  0.8240
15252SOL     OW47196   6.103   4.185   4.356 -0.6578 -0.5616 -0.2353
15252SOL    HW147197   6.081   4.260   4.411 -0.1144  0.9875 -2.0210
15252SOL    HW247198   6.194   4.166   4.376 -0.1599  0.6397 -1.2639
15253SOL     OW47199   5.451   7.355   5.475  0.3578 -0.2929  0.0905
15253SOL    HW147200   5.389   7.349   5.547 -0.2319 -1.8037 -0.4905
15253SOL    HW247201   5.455   7.448   5.453 -1.8998 -0.1776 -0.0152
15254SOL     OW47202   7.953   7.156   6.740  0.0961 -0.0590 -0.5965
15254SOL    HW147203   8.042   7.188   6.755 -0.3365  1.5714 -1.2280
15254SOL    HW247204   7.907   7.173   6.822 -0.0275  0.6092 -0.7972
15255SOL     OW47205   7.143   0.389   5.758 -0.3958 -0.1686 -0.0976
15255SOL    HW147206   7.088   0.367   5.683 -1.3402  1.3501  0.1228
15255SOL    HW247207   7.185   0.471   5.734 -0.3899  0.1230  0.8692
15256SOL     OW47208   6.758   2.491   2.607  0.3320  0.1208 -0.0036
15256SOL    HW147209   6.798   2.578   2.603 -0.1952  0.4218  1.0232
15256SOL    HW247210   6.742   2.469   2.515  1.2259  0.7451 -0.3307
15257SOL     OW47211   1.934   4.804   0.621 -0.1513 -0.4082  0.1108
15257SOL    HW147212   1.883   4.735   0.664  0.7060  0.7424  3.2676
15257SOL    HW247213   2.025   4.783   0.643  0.4838 -0.3541 -2.2339
15258SOL     OW47214   2.799   1.435   0.369 -0.6616  0.0519 -0.6748
15258SOL    HW147215   2.770   1.409   0.456 -1.8630  1.2364 -0.6932
15258SOL    HW247216   2.798   1.531   0.370  0.6741  0.1107 -1.5566
15259SOL     OW47217   7.720   1.462   2.396 -0.0500  0.0003  0.8285
15259SOL    HW147218   7.726   1.519   2.320 -0.5854 -0.3427  0.5192
15259SOL    HW247219   7.671   1.513   2.461 -0.4067 -0.0550  0.6040
15260SOL     OW47220   6.707   2.408  11.250  0.9032  0.2245  0.0262
15260SOL    HW147221   6.712   2.386  11.343 -0.4638 -0.4152 -0.0288
15260SOL    HW247222   6.741   2.498  11.245 -1.1896  1.2061  1.5315
15261SOL     OW47223   1.025   1.379   3.642 -0.2815 -0.1815  0.8660
15261SOL    HW147224   1.089   1.427   3.589 -0.6419  0.8684  1.3380
15261SOL    HW247225   1.061   1.291   3.649  1.2407  0.4316  1.3030
15262SOL     OW47226   0.279   5.167   3.051  0.2053  0.4968 -0.1430
15262SOL    HW147227   0.245   5.078   3.044  0.3500  0.3655  0.7061
15262SOL    HW247228   0.277   5.201   2.961  0.6199 -0.5386 -0.5601
15263SOL     OW47229   0.873   7.259   2.369 -0.0453 -0.3509 -0.2542
15263SOL    HW147230   0.810   7.306   2.315 -1.6563 -2.4516 -0.3680
15263SOL    HW247231   0.951   7.314   2.370 -0.6801  0.7515 -2.9725
15264SOL     OW47232   6.906   7.783   8.844  0.3840  0.6017  0.1329
15264SOL    HW147233   6.856   7.703   8.825  1.0572 -0.3387  2.1136
15264SOL    HW247234   6.940   7.810   8.758  0.3835 -1.4064 -0.5597
15265SOL     OW47235   0.922   6.910  12.181 -0.1612  0.9303  0.5706
15265SOL    HW147236   0.866   6.855  12.237  0.1838  0.8559  0.8488
15265SOL    HW247237   0.872   6.920  12.100  1.0257 -2.4130 -0.7810
15266SOL     OW47238   5.358   3.697   5.967  0.4542  0.2727 -0.2207
15266SOL    HW147239   5.275   3.744   5.965  0.1024 -0.3676 -1.4334
15266SOL    HW247240   5.334   3.605   5.968  1.1559  0.0818  0.1456
15267SOL     OW47241   7.084   4.424   3.699  0.5443 -0.1909 -0.3996
15267SOL    HW147242   7.092   4.519   3.707  0.2608 -0.2887  1.2735
15267SOL    HW247243   7.044   4.411   3.613  0.6831  1.1899 -0.6979
15268SOL     OW47244   4.729   7.054   9.845 -0.7215  0.0539 -0.4452
15268SOL    HW147245   4.675   6.980   9.871  1.5749 -1.4763  0.2578
15268SOL    HW247246   4.787   7.019   9.777  0.2843  1.2217 -0.2332
15269SOL     OW47247   1.385   1.158   5.757  0.3660 -0.4423 -0.3287
15269SOL    HW147248   1.335   1.089   5.712 -0.2706  0.4364 -0.9867
15269SOL    HW247249   1.386   1.231   5.696  1.0826  0.1268  0.3451
15270SOL     OW47250   1.885   5.826   6.881 -0.0283 -0.0875  0.2476
15270SOL    HW147251   1.955   5.845   6.944  0.1599  2.7940 -0.6529
15270SOL    HW247252   1.912   5.746   6.837  1.1825 -0.6742  1.9644
15271SOL     OW47253   5.092   5.623   4.162  0.4315 -0.0641 -0.3544
15271SOL    HW147254   5.054   5.592   4.244 -1.3793  0.1505 -1.0619
15271SOL    HW247255   5.175   5.665   4.188 -0.3752  0.5310  1.4321
15272SOL     OW47256   7.465   1.622   2.454 -0.2749 -0.3232 -0.2507
15272SOL    HW147257   7.501   1.579   2.531 -1.1225 -2.8353 -1.1768
15272SOL    HW247258   7.385   1.665   2.486  0.4477  0.4250  0.6307
15273SOL     OW47259   7.003   2.811   9.561  0.3487 -0.0268 -0.3213
15273SOL    HW147260   7.012   2.767   9.646  0.4768 -1.2155 -0.9308
15273SOL    HW247261   6.923   2.775   9.523  0.2891  0.5030 -0.7141
15274SOL     OW47262   4.996   7.465   0.462  0.9734 -0.1698  0.6124
15274SOL    HW147263   5.066   7.495   0.404 -0.9053  1.4165 -0.9678
15274SOL    HW247264   5.006   7.369   0.464  1.7885 -0.1792 -1.4780
15275SOL     OW47265   6.607   0.386  11.895  0.0660  0.4305 -0.3246
15275SOL    HW147266   6.536   0.341  11.849  1.1202 -0.4562 -1.1289
15275SOL    HW247267   6.607   0.475  11.858  0.5787 -0.1205 -1.7255
15276SOL     OW47268   4.734   6.227   1.118  0.2765 -0.2159 -0.7014
15276SOL    HW147269   4.768   6.316   1.132  0.4745  0.1601 -3.2043
15276SOL    HW247270   4.807   6.180   1.078  0.3779 -1.7439  1.1541
15277SOL     OW47271   4.258   3.488   5.036  0.0342  0.2561  0.0683
15277SOL    HW147272   4.283   3.405   4.996  0.4591  0.5340 -0.2672
15277SOL    HW247273   4.342   3.530   5.056 -0.1111  1.4691 -1.6163
15278SOL     OW47274   0.583   4.885  11.870 -0.5486 -0.0964 -0.2563
15278SOL    HW147275   0.620   4.821  11.808 -2.2405 -0.7207 -0.6631
15278SOL    HW247276   0.503   4.844  11.903  0.2463  0.2549  2.3407
15279SOL     OW47277   6.953   4.761   7.900  0.2470  0.3697 -0.9207
15279SOL    HW147278   6.911   4.840   7.869 -1.2336 -0.2856 -0.6669
15279SOL    HW247279   6.945   4.765   7.996 -0.9292 -0.6205 -0.9463
15280SOL     OW47280   6.552   2.779   2.858 -0.2854  0.3548 -0.0048
15280SOL    HW147281   6.466   2.736   2.852 -0.2649  0.2564  0.4125
15280SOL    HW247282   6.536   2.856   2.913 -0.1440  0.4375 -0.0805
15281SOL     OW47283   6.866   6.580  10.477  0.1104  0.2260 -0.0077
15281SOL    HW147284   6.909   6.542  10.400 -0.3859 -0.6846  0.1464
15281SOL    HW247285   6.875   6.674  10.466  1.0734  0.0816 -0.5909
15282SOL     OW47286   1.628   0.782   9.679  0.0671  0.0197 -0.5001
15282SOL    HW147287   1.544   0.740   9.665 -0.4770  0.9806 -0.1827
15282SOL    HW247288   1.625   0.861   9.626  0.1190  0.8877  0.7390
15283SOL     OW47289   0.759   0.386   6.208 -0.0598  0.0594 -0.2699
15283SOL    HW147290   0.671   0.349   6.198 -0.7290  1.7144 -0.8152
15283SOL    HW247291   0.781   0.371   6.299 -0.3624 -1.4972 -0.4217
15284SOL     OW47292   0.893   1.906  11.391 -0.1007 -0.6716  0.4946
15284SOL    HW147293   0.923   1.946  11.473  0.1030  0.7193 -0.2386
15284SOL    HW247294   0.814   1.955  11.369  0.5528 -0.1790 -0.8026
15285SOL     OW47295   1.918   7.003   2.275 -0.2230 -0.6507 -0.0901
15285SOL    HW147296   1.921   7.001   2.371 -0.2939  0.3398 -0.0606
15285SOL    HW247297   1.996   7.052   2.249 -0.0329 -1.1900 -0.5613
15286SOL     OW47298   0.094   4.995   4.937 -0.0446 -0.1715  0.1362
15286SOL    HW147299   0.177   5.043   4.938  1.3873 -2.3603 -2.0962
15286SOL    HW247300   0.028   5.063   4.919  1.5570  1.3213 -0.4358
15287SOL     OW47301   6.216   3.328  12.230 -0.2369  0.5432 -0.0940
15287SOL    HW147302   6.211   3.422  12.208 -0.7708  0.5519  0.0471
15287SOL    HW247303   6.158   3.318  12.305  0.7121  0.3057  0.6343
15288SOL     OW47304   5.238   6.281   8.359  0.3478  0.2247  0.1744
15288SOL    HW147305   5.206   6.371   8.356 -0.8992 -0.2211 -0.4266
15288SOL    HW247306   5.189   6.241   8.431  0.5474 -0.1071  0.1236
15289SOL     OW47307   6.632   4.729   6.418 -0.2190 -0.6191  0.3892
15289SOL    HW147308   6.658   4.759   6.331 -0.1484 -0.1329  0.5748
15289SOL    HW247309   6.638   4.807   6.473 -0.9689 -0.7614  0.6774
15290SOL     OW47310   3.574   4.943   5.855 -0.0260  0.1102 -0.4477
15290SOL    HW147311   3.638   5.014   5.862 -0.0633  0.0946  0.1250
15290SOL    HW247312   3.513   4.971   5.787 -0.9150  1.3159  0.8023
15291SOL     OW47313   0.299   5.450   3.435  0.0339  0.1390 -0.3508
15291SOL    HW147314   0.391   5.423   3.445  0.5911  1.3691 -1.6878
15291SOL    HW247315   0.292   5.528   3.490 -0.5297 -0.5520  0.5824
15292SOL     OW47316   6.123   7.629  10.562 -0.3773 -0.2088 -0.0277
15292SOL    HW147317   6.164   7.612  10.477 -0.6782 -0.4219 -0.1296
15292SOL    HW247318   6.050   7.688  10.543 -0.2362  0.0199  0.1299
15293SOL     OW47319   5.493   4.535   2.472  0.1454 -0.1007 -0.0838
15293SOL    HW147320   5.535   4.583   2.401  0.9039 -1.0921 -0.3212
15293SOL    HW247321   5.468   4.451   2.433 -0.0823 -0.3735  0.6317
15294SOL     OW47322   0.479   3.347   5.037 -0.2912 -0.1606  0.1667
15294SOL    HW147323   0.558   3.376   4.992  1.2366 -1.4671  1.8262
15294SOL    HW247324   0.454   3.266   4.992 -0.4518  0.0347 -0.0986
15295SOL     OW47325   4.109   5.181   6.272  0.5038 -0.0794  0.2848
15295SOL    HW147326   4.114   5.086   6.265 -0.1212 -0.1164  0.2929
15295SOL    HW247327   4.015   5.200   6.280  0.5259  0.6283 -0.9957
15296SOL     OW47328   0.919   0.874   9.834  0.7322 -0.6684 -0.0486
15296SOL    HW147329   0.841   0.869   9.888  0.0113 -1.0786 -1.1050
15296SOL    HW247330   0.924   0.966   9.808  1.0641 -0.4763  0.6659
15297SOL     OW47331   5.874   1.974  10.600  0.3627  0.1157 -0.3542
15297SOL    HW147332   5.911   1.955  10.514  2.5585 -0.5746  0.6802
15297SOL    HW247333   5.813   1.901  10.615  1.3914 -0.8201 -0.5521
15298SOL     OW47334   3.886   6.062   0.316  0.0319  0.5172 -0.5636
15298SOL    HW147335   3.899   5.968   0.327  0.1474  0.7378  1.3757
15298SOL    HW247336   3.791   6.074   0.318  0.0351  0.4971 -0.2569
15299SOL     OW47337   2.308   5.904   9.060 -0.3876 -0.0481 -0.1613
15299SOL    HW147338   2.300   5.999   9.045 -0.2779  0.2817  1.6418
15299SOL    HW247339   2.400   5.891   9.084 -0.0286 -0.8706 -1.8322
15300SOL     OW47340   5.265   7.630   8.944 -0.2921  0.2843  0.5951
15300SOL    HW147341   5.300   7.695   8.882  0.4467 -1.5626 -1.0409
15300SOL    HW247342   5.179   7.607   8.908  0.4066 -1.2720 -0.1978
15301SOL     OW47343   1.535   5.795   7.101 -0.0387 -0.2475  0.2175
15301SOL    HW147344   1.621   5.798   7.143 -0.2322  1.7082  0.5757
15301SOL    HW247345   1.553   5.777   7.009  0.7550  0.2314  0.2726
15302SOL     OW47346   5.831   7.233   8.704  0.1538  0.0635  0.4006
15302SOL    HW147347   5.919   7.198   8.711  0.2089  0.0835 -0.1172
15302SOL    HW247348   5.781   7.187   8.771  0.7211  0.5866  1.1920
15303SOL     OW47349   4.761   1.368   0.712  0.0949 -0.0065 -0.0367
15303SOL    HW147350   4.784   1.443   0.768 -0.5555  1.2916 -1.4201
15303SOL    HW247351   4.709   1.407   0.641 -0.0519 -1.7548 -0.9311
15304SOL     OW47352   1.780   1.166   5.975 -0.4426 -0.6934  0.1023
15304SOL    HW147353   1.762   1.096   6.037  0.9060 -0.2541  1.0369
15304SOL    HW247354   1.761   1.128   5.889 -2.0060 -1.4212  0.7241
15305SOL     OW47355   6.606   1.191   5.705 -0.6119 -0.2787 -0.2839
15305SOL    HW147356   6.523   1.187   5.658 -0.7029 -0.9358 -0.0782
15305SOL    HW247357   6.582   1.192   5.797 -0.4116  0.3335 -0.2366
15306SOL     OW47358   0.760   3.515   6.159 -0.9993 -0.4874 -0.5438
15306SOL    HW147359   0.753   3.602   6.199 -0.4724 -0.4498 -0.5304
15306SOL    HW247360   0.721   3.526   6.072 -1.6918 -0.4457 -0.2386
15307SOL     OW47361   3.272   6.039   9.122 -0.2956 -0.0107  0.0871
15307SOL    HW147362   3.279   6.110   9.186 -1.6985 -0.2535  0.5602
15307SOL    HW247363   3.189   5.995   9.145 -0.6261 -0.3509 -1.6430
15308SOL     OW47364   0.932   0.212   4.397 -0.4372 -0.3905 -0.6603
15308SOL    HW147365   0.899   0.273   4.463 -0.2091 -0.8972 -0.0715
15308SOL    HW247366   0.998   0.160   4.443 -0.9904 -1.4320 -0.9994
15309SOL     OW47367   0.593   5.020  12.275  0.0693  0.7908 -0.3361
15309SOL    HW147368   0.592   5.064  12.360  0.6779 -1.1203  0.7062
15309SOL    HW247369   0.502   5.021  12.246 -0.0727  1.8673  0.0994
15310SOL     OW47370   0.232   4.564   0.881  0.0043 -0.1785  0.2784
15310SOL    HW147371   0.151   4.566   0.830 -0.5281 -0.7491  1.0751
15310SOL    HW247372   0.242   4.472   0.906  1.6829 -0.3994 -0.9998
15311SOL     OW47373   0.470   6.167  10.005 -0.0244 -0.2081 -0.1162
15311SOL    HW147374   0.540   6.232  10.004 -0.0136 -0.1750  0.9858
15311SOL    HW247375   0.471   6.133  10.095 -0.7583 -0.9285 -0.3715
15312SOL     OW47376   6.375   4.702   5.924 -0.0970 -0.1383  0.0948
15312SOL    HW147377   6.336   4.776   5.969  1.2948  0.9981 -0.4946
15312SOL    HW247378   6.332   4.625   5.963 -0.1830  0.8578  2.1154
15313SOL     OW47379   6.391   4.220   1.086  0.7362 -0.4630 -0.1586
15313SOL    HW147380   6.355   4.307   1.068  0.9840 -0.4044 -0.3690
15313SOL    HW247381   6.403   4.218   1.181 -1.0917 -0.9651  0.1123
15314SOL     OW47382   1.526   6.613   3.469 -0.3726  0.3651 -0.2826
15314SOL    HW147383   1.484   6.688   3.427 -0.3479  0.7751  0.4044
15314SOL    HW247384   1.548   6.644   3.557 -0.1560 -0.3773 -0.0657
15315SOL     OW47385   2.818   7.434   8.418 -0.4475  0.4374  0.0654
15315SOL    HW147386   2.780   7.512   8.378 -0.4974 -0.3599 -1.5152
15315SOL    HW247387   2.744   7.374   8.429 -0.4903  0.7354  1.6707
15316SOL     OW47388   6.744   0.730   6.989 -0.0042 -0.5474  0.0683
15316SOL    HW147389   6.729   0.720   6.894 -0.3751  0.8342 -0.0363
15316SOL    HW247390   6.659   0.760   7.023  0.7367  1.1819  0.4690
15317SOL     OW47391   7.205   6.961   7.942  0.3429 -0.0303 -0.0411
15317SOL    HW147392   7.183   6.920   8.026 -0.8464  0.4937 -0.0733
15317SOL    HW247393   7.248   7.043   7.966 -0.7140  0.5085  0.1000
15318SOL     OW47394   4.418   6.163   9.811 -0.4094 -0.6283  0.3318
15318SOL    HW147395   4.337   6.121   9.784  0.3289 -1.8342 -0.0982
15318SOL    HW247396   4.390   6.238   9.864 -1.8716  0.5467 -1.9142
15319SOL     OW47397   6.249   5.831  11.016 -0.4219  0.2155 -0.2997
15319SOL    HW147398   6.234   5.756  11.072  0.4883  0.8811  0.8747
15319SOL    HW247399   6.272   5.793  10.931  2.6726 -0.9752  0.9178
15320SOL     OW47400   2.146   6.726   9.109  0.5595 -0.3227 -0.0892
15320SOL    HW147401   2.139   6.795   9.043 -1.3836 -1.6760 -1.4239
15320SOL    HW247402   2.088   6.754   9.179  0.2962 -0.2845 -0.3208
15321SOL     OW47403   1.126   6.471  11.092  0.1552 -0.6250  0.9033
15321SOL    HW147404   1.140   6.545  11.151  1.2357 -0.8436  0.9288
15321SOL    HW247405   1.213   6.433  11.079 -0.5689 -2.9494  2.2570
15322SOL     OW47406   2.960   5.229   7.520 -0.8451 -0.8872 -0.0769
15322SOL    HW147407   3.000   5.159   7.468  0.3389 -0.5907  0.3978
15322SOL    HW247408   2.982   5.310   7.474  0.4342 -0.5973  0.9498
15323SOL     OW47409   4.012   0.951   6.653 -0.7816  0.1192 -0.3918
15323SOL    HW147410   3.981   0.953   6.744 -2.0442  0.5215 -0.8072
15323SOL    HW247411   4.102   0.920   6.659 -0.6781  0.6176  1.0464
15324SOL     OW47412   4.256   6.972   1.635  0.1309 -0.4268  0.3694
15324SOL    HW147413   4.220   7.057   1.610 -0.2113 -1.0480 -1.3650
15324SOL    HW247414   4.180   6.919   1.655  0.3075 -0.5469  0.7285
15325SOL     OW47415   2.161   6.573   0.157  0.4447  0.1014 -0.3578
15325SOL    HW147416   2.251   6.606   0.157  0.2765  1.0288  3.4888
15325SOL    HW247417   2.115   6.628   0.094  2.0923  1.1550 -0.7118
15326SOL     OW47418   4.115   6.339   8.959  0.2722  0.2552 -0.0014
15326SOL    HW147419   4.068   6.420   8.981  0.7727  0.3508  0.7521
15326SOL    HW247420   4.180   6.330   9.028  0.7504 -0.3712 -0.5272
15327SOL     OW47421   7.002   5.800   7.612 -0.3198 -0.4388 -0.0273
15327SOL    HW147422   6.975   5.743   7.541  0.5712  0.6938 -1.3228
15327SOL    HW247423   7.066   5.860   7.573 -2.2782  2.4508  0.8186
15328SOL     OW47424   4.102   0.743   8.846  0.1101 -0.4236  0.5561
15328SOL    HW147425   4.079   0.812   8.783  2.1151  0.1295  0.3528
15328SOL    HW247426   4.019   0.722   8.890 -0.2391  4.2776  2.7918
15329SOL     OW47427   0.455   0.336   9.075 -0.0624 -0.4707  0.5227
15329SOL    HW147428   0.404   0.379   9.006  0.9086  1.9517  1.1801
15329SOL    HW247429   0.538   0.314   9.034  0.8755  1.8234  1.0496
15330SOL     OW47430   6.459   6.663   9.782  0.1345  0.0455  0.9944
15330SOL    HW147431   6.402   6.622   9.717  0.6447 -1.0009  1.1799
15330SOL    HW247432   6.400   6.714   9.837 -0.2075  1.6719 -0.7887
15331SOL     OW47433   7.377   1.771   5.974 -0.3206 -0.6666 -0.0121
15331SOL    HW147434   7.297   1.824   5.967 -1.2121 -1.9098  0.4230
15331SOL    HW247435   7.414   1.772   5.886  0.6995  2.1427  0.3301
15332SOL     OW47436   1.893   4.289   6.605 -0.1450 -0.7132  0.6873
15332SOL    HW147437   1.836   4.222   6.565  0.2949 -0.2211 -0.8474
15332SOL    HW247438   1.879   4.279   6.699 -1.9672 -1.3165  0.4022
15333SOL     OW47439   0.781   3.063   1.067  0.1649  0.1021  0.0926
15333SOL    HW147440   0.828   3.104   0.994  1.3550 -2.4005 -0.6743
15333SOL    HW247441   0.718   3.005   1.025 -1.5911  1.1476  1.1342
15334SOL     OW47442   3.320   4.202   2.199 -0.4812  0.6316 -0.1193
15334SOL    HW147443   3.382   4.159   2.259 -0.2316  3.2948  1.7088
15334SOL    HW247444   3.311   4.141   2.126  0.9843 -1.7763  1.5599
15335SOL     OW47445   6.907   4.129   3.541  0.0987 -0.1740  0.2232
15335SOL    HW147446   6.956   4.122   3.623 -0.4372  1.0837  0.6835
15335SOL    HW247447   6.817   4.147   3.569 -0.3175 -0.8474 -0.6376
15336SOL     OW47448   1.938   2.791   4.752 -0.1426 -0.1432  0.1084
15336SOL    HW147449   1.988   2.803   4.671  1.4656  1.1604  1.2271
15336SOL    HW247450   1.966   2.705   4.784  0.7358  0.1843  0.2559
15337SOL     OW47451   2.054   7.666   0.937  0.8728  0.0758  0.1071
15337SOL    HW147452   1.960   7.681   0.948  0.5025 -0.5911 -1.8062
15337SOL    HW247453   2.081   7.624   1.019 -0.5015  0.1878  0.6507
15338SOL     OW47454   6.860   0.914   6.065  0.1189 -0.5968 -0.2496
15338SOL    HW147455   6.903   0.924   6.150 -0.3920 -2.7201  0.3300
15338SOL    HW247456   6.838   1.003   6.039  3.5319  0.4877  0.0674
15339SOL     OW47457   7.579   1.951   6.056 -0.3845 -0.8941  0.0541
15339SOL    HW147458   7.540   2.021   6.108 -0.8611 -0.9115 -0.2653
15339SOL    HW247459   7.507   1.890   6.041 -0.3803 -0.6564 -1.0081
15340SOL     OW47460   4.304   0.870  11.643  0.1046 -0.5353 -0.0085
15340SOL    HW147461   4.328   0.877  11.550 -0.1604 -2.5404 -0.2749
15340SOL    HW247462   4.380   0.829  11.684 -0.8920 -2.3571  0.0819
15341SOL     OW47463   6.928   3.216   4.867 -0.8944  0.5339 -0.4657
15341SOL    HW147464   6.863   3.149   4.887  0.8134 -0.4548  2.4438
15341SOL    HW247465   6.984   3.176   4.801 -1.9866  0.6017 -1.4690
15342SOL     OW47466   6.793   4.276   0.493  0.4640 -0.5449  0.4314
15342SOL    HW147467   6.856   4.252   0.424 -1.0869 -0.1834 -1.1910
15342SOL    HW247468   6.762   4.192   0.527 -1.9532 -0.9973 -2.4296
15343SOL     OW47469   0.558   0.710   5.855 -0.1032  0.5760 -0.0057
15343SOL    HW147470   0.607   0.696   5.936 -0.8364 -0.6218  0.2441
15343SOL    HW247471   0.473   0.744   5.884 -0.9837 -1.4032 -0.1205
15344SOL     OW47472   3.737   1.663   5.544 -0.3723 -0.0737  0.6414
15344SOL    HW147473   3.658   1.703   5.506 -1.3246 -1.3555  1.1845
15344SOL    HW247474   3.764   1.724   5.612 -0.7719  0.4835  0.3153
15345SOL     OW47475   4.031   4.778  11.294 -0.1324 -0.0724  0.2850
15345SOL    HW147476   3.990   4.726  11.362  0.8040  0.0577  0.9675
15345SOL    HW247477   3.960   4.799  11.233 -0.9475 -0.3231  1.1297
15346SOL     OW47478   3.489   4.524   6.023 -0.1826  0.5558  0.1795
15346SOL    HW147479   3.398   4.519   5.996 -0.6322  1.2146  1.4791
15346SOL    HW247480   3.527   4.590   5.965 -0.4186  0.0163 -0.6123
15347SOL     OW47481   7.919   3.763   0.257  0.1908 -0.0984 -0.3938
15347SOL    HW147482   7.854   3.744   0.325 -0.1727 -2.2864 -1.2869
15347SOL    HW247483   7.955   3.678   0.233  3.2066  1.0068 -0.1683
15348SOL     OW47484   6.764   4.494   5.532 -0.2298 -0.1998  0.1642
15348SOL    HW147485   6.694   4.541   5.576 -1.1703 -2.6671  1.4852
15348SOL    HW247486   6.834   4.489   5.597 -0.0764 -0.4767 -0.0208
15349SOL     OW47487   5.760   7.134   8.055 -0.2667 -0.3093 -0.0138
15349SOL    HW147488   5.746   7.226   8.077  0.6780 -0.1362 -0.1186
15349SOL    HW247489   5.822   7.102   8.120 -0.2714 -0.7682 -0.2295
15350SOL     OW47490   7.028   4.562  11.331  0.0301  0.3307 -0.3481
15350SOL    HW147491   6.958   4.555  11.397 -0.0494  0.9636 -0.3525
15350SOL    HW247492   6.982   4.566  11.247 -0.0313  1.9790 -0.2827
15351SOL     OW47493   0.609   5.804   7.534  0.1148  0.2687  0.3959
15351SOL    HW147494   0.521   5.776   7.555 -0.6360  1.9309 -0.3415
15351SOL    HW247495   0.605   5.832   7.443  1.3853  0.4181  0.3571
15352SOL     OW47496   0.973   5.589  10.748 -0.0434 -0.1119  0.4681
15352SOL    HW147497   0.883   5.588  10.781 -0.7586  0.5628 -1.3345
15352SOL    HW247498   0.964   5.600  10.653  1.8634 -2.6176 -0.1372
15353SOL     OW47499   2.022   6.225   4.000  0.4593 -0.0856 -0.0740
15353SOL    HW147500   2.087   6.248   4.067  3.2941 -1.2302 -2.2307
15353SOL    HW247501   2.068   6.238   3.917 -1.0602 -3.7618 -1.6917
15354SOL     OW47502   7.425   3.178   0.296  0.7262 -0.8994 -0.2449
15354SOL    HW147503   7.488   3.133   0.240 -0.3607 -1.5044 -1.0121
15354SOL    HW247504   7.342   3.170   0.250  0.2222  0.5947  0.3471
15355SOL     OW47505   5.034   0.752   4.811  0.1676  0.3061 -0.9296
15355SOL    HW147506   5.112   0.800   4.785  0.5853  0.5841  0.7084
15355SOL    HW247507   4.974   0.819   4.844  1.0929 -0.2390  2.1996
15356SOL     OW47508   4.632   1.331   9.669  0.2556  0.9372  0.5354
15356SOL    HW147509   4.722   1.326   9.637 -0.3672  0.5625 -1.2212
15356SOL    HW247510   4.581   1.363   9.594 -1.1276  0.8812  1.4164
15357SOL     OW47511   0.546   1.778   3.226 -0.6576 -0.2997  0.0527
15357SOL    HW147512   0.586   1.863   3.211 -0.1658 -0.4491  0.5140
15357SOL    HW247513   0.607   1.716   3.185 -1.3422 -0.3895 -0.8744
15358SOL     OW47514   5.265   0.624  11.883  0.1233 -0.3711  0.2782
15358SOL    HW147515   5.181   0.589  11.851 -0.3547 -0.3945  1.5085
15358SOL    HW247516   5.277   0.705  11.833 -0.2929 -0.7066 -0.3890
15359SOL     OW47517   3.157   7.893   7.515 -0.1158 -0.2132 -0.1094
15359SOL    HW147518   3.091   7.865   7.451  0.6611 -1.3282 -0.4547
15359SOL    HW247519   3.239   7.853   7.484  0.5074  0.2398  0.9116
15360SOL     OW47520   6.417   0.326   8.459  0.0433 -0.1860  0.1763
15360SOL    HW147521   6.347   0.364   8.513 -0.3316 -0.5310 -0.0615
15360SOL    HW247522   6.408   0.232   8.472  0.5025 -0.2302  0.1851
15361SOL     OW47523   6.987   7.823   7.245  0.5669  0.4284  0.3932
15361SOL    HW147524   7.052   7.805   7.177  0.7791 -0.0304  0.7060
15361SOL    HW247525   6.952   7.909   7.224 -0.2450 -0.2059 -0.9862
15362SOL     OW47526   1.903   7.768  11.098 -0.2957  0.3604 -0.4816
15362SOL    HW147527   1.939   7.681  11.080 -2.3787 -1.0550  1.5892
15362SOL    HW247528   1.811   7.762  11.071 -0.0451  2.5964 -2.0617
15363SOL     OW47529   3.361   4.783   9.817  0.4872  0.4942 -0.1844
15363SOL    HW147530   3.367   4.843   9.742 -0.1388 -1.0183 -1.4883
15363SOL    HW247531   3.349   4.697   9.778  1.7596 -0.5776  1.6446
15364SOL     OW47532   3.349   5.470   6.397 -0.5436  0.1489 -0.3327
15364SOL    HW147533   3.389   5.490   6.313 -0.5686  1.1624 -0.1196
15364SOL    HW247534   3.306   5.386   6.384 -0.4927  0.2657 -1.3126
15365SOL     OW47535   4.269   0.038   1.496 -0.1607  0.0040 -0.3737
15365SOL    HW147536   4.295   0.005   1.410 -1.1131  2.6833 -1.7868
15365SOL    HW247537   4.317  -0.017   1.558  2.6587 -0.2907 -2.6458
15366SOL     OW47538   7.412   2.435   5.243  0.0793 -0.5186  0.0115
15366SOL    HW147539   7.426   2.367   5.309  0.0633 -0.8232 -0.2972
15366SOL    HW247540   7.457   2.402   5.165 -2.4075 -1.6077 -1.0708
15367SOL     OW47541   4.051   0.512  10.674  0.1435 -0.4920 -0.2808
15367SOL    HW147542   4.008   0.454  10.611  0.1734  0.1670 -0.9152
15367SOL    HW247543   4.132   0.539  10.630  0.4071 -0.4148  0.2409
15368SOL     OW47544   5.914   5.284   6.625 -0.1543 -0.0877 -0.4089
15368SOL    HW147545   5.967   5.335   6.688 -0.4106  0.9049 -0.9679
15368SOL    HW247546   5.915   5.195   6.660  0.7459  0.1873  0.3311
15369SOL     OW47547   4.947   3.886   3.496 -0.3646  0.0784  0.6210
15369SOL    HW147548   4.967   3.794   3.478  0.4570  0.1351  1.2274
15369SOL    HW247549   4.851   3.889   3.497 -0.4205 -0.4526 -0.9564
15370SOL     OW47550   7.462   4.612   4.383  0.2546 -0.2408 -0.4679
15370SOL    HW147551   7.534   4.550   4.394  1.5932  0.9592 -2.0257
15370SOL    HW247552   7.485   4.686   4.440 -0.4094 -0.3793 -0.0063
15371SOL     OW47553   3.944   2.268   3.751 -0.2615  0.3848  0.4208
15371SOL    HW147554   4.027   2.275   3.798 -0.1148  0.1621  0.1983
15371SOL    HW247555   3.953   2.189   3.698  0.0899  1.2987 -0.9510
15372SOL     OW47556   2.842   2.120   8.207  0.5048  0.2905  0.4323
15372SOL    HW147557   2.856   2.026   8.214 -0.8325  0.0222 -0.2358
15372SOL    HW247558   2.759   2.136   8.253 -0.4308  0.7870 -1.3498
15373SOL     OW47559   2.167   2.897   1.369 -0.3784 -0.0150  0.1490
15373SOL    HW147560   2.261   2.879   1.378 -0.3407  0.1186  0.0327
15373SOL    HW247561   2.147   2.873   1.278 -0.2219  0.9849 -0.1632
15374SOL     OW47562   7.163   3.699   4.460  0.1353 -0.0933 -0.4146
15374SOL    HW147563   7.108   3.713   4.383 -1.6052 -0.3566  0.7052
15374SOL    HW247564   7.137   3.769   4.520  0.1449 -0.9440  0.6049
15375SOL     OW47565   2.903   6.413   7.044  0.0175 -0.0270 -0.1821
15375SOL    HW147566   2.901   6.448   6.955 -1.4457 -0.4959 -0.3606
15375SOL    HW247567   2.832   6.459   7.090  1.2882  0.8293  1.0161
15376SOL     OW47568   3.568   0.621   9.072  0.8600 -0.2760 -0.1929
15376SOL    HW147569   3.571   0.525   9.067  0.6179 -0.3380  0.7418
15376SOL    HW247570   3.564   0.640   9.166  1.9688  0.6830 -0.3218
15377SOL     OW47571   0.331   2.392   7.354  0.3144  0.2535  0.5563
15377SOL    HW147572   0.372   2.322   7.405  1.2671  1.2088  1.1495
15377SOL    HW247573   0.275   2.437   7.417 -2.3663 -1.5037 -0.4128
15378SOL     OW47574   4.919   6.517   1.886 -0.3413 -0.0503  0.2914
15378SOL    HW147575   5.013   6.502   1.875 -0.3741 -0.2250  0.2514
15378SOL    HW247576   4.913   6.610   1.908 -0.0949 -0.2389  1.1920
15379SOL     OW47577   2.845   5.993   4.818 -0.1717 -0.6126 -0.7238
15379SOL    HW147578   2.933   6.002   4.783  0.0191 -0.1023 -0.1279
15379SOL    HW247579   2.846   5.910   4.865  0.3093 -0.1176  0.1646
15380SOL     OW47580   5.540   0.981   6.802  0.1864 -0.2198  0.1604
15380SOL    HW147581   5.620   1.027   6.780  0.2930 -0.1992  0.5724
15380SOL    HW247582   5.484   1.047   6.843 -0.3387 -0.0581 -0.7902
15381SOL     OW47583   0.524   4.895   5.816  0.0600  0.3066 -0.0502
15381SOL    HW147584   0.576   4.946   5.878  3.1770  0.3580 -2.4658
15381SOL    HW247585   0.519   4.950   5.737 -0.1245 -1.4101 -1.3036
15382SOL     OW47586   7.059   0.994   1.339  0.0725  0.4338  0.0415
15382SOL    HW147587   7.085   1.068   1.284  1.3518 -0.2348 -0.2992
15382SOL    HW247588   7.014   0.935   1.279 -1.2309  1.0453  0.3788
15383SOL     OW47589   3.301   7.424  10.736 -0.8409  0.0812 -0.1970
15383SOL    HW147590   3.395   7.406  10.747 -1.3147 -2.0535  0.9637
15383SOL    HW247591   3.287   7.506  10.783 -0.2480 -1.8236  3.7974
15384SOL     OW47592   5.121   0.835   5.935  0.1388 -0.3324 -0.5952
15384SOL    HW147593   5.063   0.768   5.897 -0.8694 -0.7006  1.4507
15384SOL    HW247594   5.067   0.914   5.935  0.4296 -0.1360 -0.6885
15385SOL     OW47595   2.971   4.433   8.804 -0.2712  0.2247 -0.1465
15385SOL    HW147596   2.932   4.376   8.737 -0.3464 -0.0553  0.1302
15385SOL    HW247597   3.029   4.492   8.755 -0.3064  0.0064 -0.4555
15386SOL     OW47598   1.948   1.974   5.741 -0.2437  0.4373  0.1058
15386SOL    HW147599   1.881   1.930   5.689  1.6677 -1.6935 -0.7280
15386SOL    HW247600   2.030   1.951   5.698  1.4406 -0.9111  3.6175
15387SOL     OW47601   7.076   3.727   4.213 -0.3543  0.6666  0.1843
15387SOL    HW147602   6.982   3.740   4.227 -0.5715 -1.8118  1.6549
15387SOL    HW247603   7.082   3.639   4.177  1.3486  1.4863 -1.7129
15388SOL     OW47604   3.923   5.211   7.364  0.0691  0.0923 -0.3415
15388SOL    HW147605   3.889   5.187   7.450 -1.1544  2.3531 -0.1204
15388SOL    HW247606   3.974   5.290   7.379  0.9457 -0.2054 -1.5388
15389SOL     OW47607   7.697   0.957   0.352 -0.6902  0.2488 -1.0192
15389SOL    HW147608   7.675   0.933   0.441 -0.9261  0.3524 -1.0490
15389SOL    HW247609   7.615   0.949   0.304 -0.6798  0.7062 -1.1166
15390SOL     OW47610   1.427   4.339  11.558 -0.1062 -0.1298  0.1086
15390SOL    HW147611   1.508   4.341  11.610 -0.6703 -2.7842  1.2556
15390SOL    HW247612   1.453   4.301  11.474  0.1595  0.8511 -0.2662
15391SOL     OW47613   4.148   7.832   1.131  0.7489 -0.0120 -1.1198
15391SOL    HW147614   4.059   7.811   1.156  1.4499  0.6775  2.4305
15391SOL    HW247615   4.187   7.747   1.108  0.0329 -0.7887  0.4051
15392SOL     OW47616   4.611   6.063  11.363  0.5176 -0.0782  0.5649
15392SOL    HW147617   4.517   6.081  11.359  0.8417  1.7207  0.0308
15392SOL    HW247618   4.621   6.000  11.434 -1.0540 -0.0450  0.8495
15393SOL     OW47619   5.168   6.641   1.931 -0.9385 -0.3073  0.4077
15393SOL    HW147620   5.094   6.690   1.967 -0.6518  0.4929 -0.0478
15393SOL    HW247621   5.220   6.707   1.885  1.4322 -0.3384  2.8042
15394SOL     OW47622   1.637   5.602   1.234 -0.1968  0.5704 -0.5658
15394SOL    HW147623   1.716   5.557   1.266 -0.8779  0.1271  0.5555
15394SOL    HW247624   1.617   5.558   1.151  0.6451  0.5903 -0.7890
15395SOL     OW47625   5.370   6.101   0.796 -0.0690  0.8471  0.4465
15395SOL    HW147626   5.366   6.151   0.715 -1.7586  0.4739  0.2597
15395SOL    HW247627   5.448   6.046   0.786 -0.3174  0.7116 -1.0039
15396SOL     OW47628   1.221   3.786   4.436 -0.0179  0.0166 -0.2941
15396SOL    HW147629   1.164   3.709   4.433  2.3527 -1.9262  1.1370
15396SOL    HW247630   1.181   3.844   4.501 -0.6723 -1.0334  0.2539
15397SOL     OW47631   6.304   6.531   4.065 -0.1738 -0.6351  0.4362
15397SOL    HW147632   6.313   6.579   4.147 -0.6282  0.1702  0.0306
15397SOL    HW247633   6.389   6.491   4.051  0.1751 -0.0576  0.8545
15398SOL     OW47634   1.603   0.913   7.778  0.1168  0.5409 -0.1082
15398SOL    HW147635   1.578   0.866   7.698  1.1916  0.3904 -0.3842
15398SOL    HW247636   1.696   0.933   7.765  0.5350 -0.2035  1.4487
15399SOL     OW47637   2.070   2.713   3.028  0.1592 -0.4150 -0.5266
15399SOL    HW147638   2.084   2.748   2.940  1.6545 -0.6935 -0.4283
15399SOL    HW247639   2.148   2.659   3.044 -0.8733 -1.7015  0.3214
15400SOL     OW47640   5.946   4.981   1.034  0.6972  0.4546  0.2287
15400SOL    HW147641   5.921   4.944   0.949  1.6298 -0.6213  0.3863
15400SOL    HW247642   6.032   4.942   1.052  0.4270  0.5070  1.7485
15401SOL     OW47643   1.936   5.200   0.836  0.2970 -0.4762 -0.0277
15401SOL    HW147644   1.927   5.250   0.755 -1.1178 -1.1728 -0.3206
15401SOL    HW247645   1.853   5.212   0.882 -0.6348 -3.4847 -0.6833
15402SOL     OW47646   3.343   0.309   1.687 -0.5611  0.6330 -0.1162
15402SOL    HW147647   3.259   0.266   1.671  1.0444 -1.8290 -2.9990
15402SOL    HW247648   3.395   0.245   1.736  1.1790 -0.0577 -2.6610
15403SOL     OW47649   5.496   4.199   4.438 -0.4857  0.2119 -0.7262
15403SOL    HW147650   5.515   4.136   4.368 -2.0226  1.3727 -2.2900
15403SOL    HW247651   5.487   4.145   4.517 -0.8772 -1.4343 -1.8376
15404SOL     OW47652   7.448   5.760   4.026 -0.2683 -0.0270 -0.2983
15404SOL    HW147653   7.356   5.754   4.052 -0.8531 -1.3329 -2.4277
15404SOL    HW247654   7.446   5.796   3.938  1.4308  1.5683  0.2387
15405SOL     OW47655   5.761   6.318  10.313 -0.5307  0.1086 -0.0278
15405SOL    HW147656   5.779   6.371  10.236  0.3436 -0.9023 -0.5595
15405SOL    HW247657   5.678   6.275  10.294  0.2008 -0.9741 -0.9221
15406SOL     OW47658   0.969   1.740   0.490 -0.1449  0.3224  0.1522
15406SOL    HW147659   0.988   1.795   0.414 -0.1622 -0.2351 -0.2669
15406SOL    HW247660   0.945   1.655   0.452 -0.9342  0.2609  0.7531
15407SOL     OW47661   7.845   2.408  10.828  0.5869 -0.8138  0.2426
15407SOL    HW147662   7.763   2.451  10.853  1.6447  2.1307 -0.8633
15407SOL    HW247663   7.861   2.344  10.897 -1.2467  0.4621  1.9533
15408SOL     OW47664   4.945   6.392   4.268  0.0322  0.1426 -0.2105
15408SOL    HW147665   4.907   6.431   4.189 -1.2577  0.3497  0.4890
15408SOL    HW247666   5.019   6.340   4.236  0.0748  0.9266 -1.4562
15409SOL     OW47667   0.267   2.188   7.967  0.2748 -0.1717 -0.1251
15409SOL    HW147668   0.191   2.215   7.915 -0.4122 -2.0563 -0.1804
15409SOL    HW247669   0.243   2.210   8.057 -0.1806 -0.4198 -0.1825
15410SOL     OW47670   0.591   3.708   2.388 -0.4722 -0.3857  0.2696
15410SOL    HW147671   0.553   3.699   2.476 -3.3167 -2.4009 -0.9959
15410SOL    HW247672   0.668   3.651   2.389 -0.2768 -0.1288  1.5182
15411SOL     OW47673   5.291   6.756   9.030 -0.4306 -0.3066  0.7073
15411SOL    HW147674   5.332   6.695   9.091 -0.6176 -1.4483 -0.2629
15411SOL    HW247675   5.216   6.792   9.078  0.9871  0.9394  2.0978
15412SOL     OW47676   3.794   6.992   7.122  0.0332  0.1621  0.2156
15412SOL    HW147677   3.839   6.909   7.110 -0.4033  0.2078 -2.4480
15412SOL    HW247678   3.717   6.971   7.174 -1.2743 -1.6389 -2.2539
15413SOL     OW47679   3.966   6.760   7.060  0.3178  0.2259 -0.4786
15413SOL    HW147680   3.919   6.686   7.022 -1.8820 -0.1250  2.5944
15413SOL    HW247681   4.041   6.720   7.105  0.8767  0.2624 -1.3465
15414SOL     OW47682   3.346   2.286   7.816  0.2447  0.0202 -0.0510
15414SOL    HW147683   3.311   2.369   7.782 -0.8313 -0.2033  0.4825
15414SOL    HW247684   3.434   2.309   7.847  0.3343  0.7471 -0.7829
15415SOL     OW47685   2.249   3.129   3.995 -0.0761 -0.2253  0.3405
15415SOL    HW147686   2.305   3.143   3.919  0.2775  2.1383  0.9661
15415SOL    HW247687   2.164   3.106   3.958  0.1328  0.7260 -0.7862
15416SOL     OW47688   4.851   1.999   4.778  0.2902  0.1141  0.1482
15416SOL    HW147689   4.786   1.931   4.792  0.9345 -1.1057 -2.1898
15416SOL    HW247690   4.843   2.022   4.685  0.9429  2.3609  0.5763
15417SOL     OW47691   6.726   4.293   3.298  0.1453 -0.8220 -0.8477
15417SOL    HW147692   6.649   4.319   3.249  0.8841  0.6184 -1.3044
15417SOL    HW247693   6.798   4.300   3.235  0.8680 -0.5973 -0.0139
15418SOL     OW47694   6.421   1.603   1.623  0.0493 -0.3872  0.0574
15418SOL    HW147695   6.419   1.539   1.695 -0.8339 -0.5776 -0.1162
15418SOL    HW247696   6.431   1.549   1.544  0.1529 -0.2454 -0.0258
15419SOL     OW47697   1.523   4.817   4.054  0.1686  0.3092  0.5402
15419SOL    HW147698   1.440   4.769   4.057 -0.4708  1.4333  1.7238
15419SOL    HW247699   1.578   4.766   3.994 -1.2670 -0.6084 -0.0460
15420SOL     OW47700   4.694   1.626   9.064 -0.3797 -0.0762  0.5099
15420SOL    HW147701   4.667   1.712   9.095 -1.9822 -0.3757  0.0632
15420SOL    HW247702   4.692   1.571   9.143 -0.1496  0.1257  0.6561
15421SOL     OW47703   1.357   2.834   3.775 -0.0265  0.4592 -0.0505
15421SOL    HW147704   1.401   2.817   3.858 -0.5237 -0.0996  0.1031
15421SOL    HW247705   1.338   2.747   3.740  1.1162  0.6586 -1.2588
15422SOL     OW47706   7.043   4.477   2.563 -0.8188  0.4040  0.2645
15422SOL    HW147707   7.136   4.495   2.575 -0.9964  0.7664  1.2253
15422SOL    HW247708   7.028   4.396   2.611 -1.5450  1.8812  2.7553
15423SOL     OW47709   5.523   0.286   2.228  0.3119  0.5142  0.1872
15423SOL    HW147710   5.468   0.358   2.196  1.4299  2.1180  1.6875
15423SOL    HW247711   5.516   0.218   2.161 -0.8842  1.9720 -1.2302
15424SOL     OW47712   6.404   7.061   0.184 -0.2633  0.1759  0.1889
15424SOL    HW147713   6.335   7.073   0.119 -0.7578 -3.0312 -0.0557
15424SOL    HW247714   6.479   7.029   0.133  0.1149 -0.0985  0.9064
15425SOL     OW47715   4.538   2.709  10.016 -0.2489  0.1886 -0.6105
15425SOL    HW147716   4.624   2.725   9.979 -0.1856  1.7300  0.1173
15425SOL    HW247717   4.478   2.716   9.942  0.2148 -0.8585 -1.1163
15426SOL     OW47718   4.005   7.880   8.399  0.0668 -0.1726 -0.0212
15426SOL    HW147719   3.995   7.856   8.491 -0.8339 -1.2445 -0.3750
15426SOL    HW247720   4.089   7.840   8.373  1.4474  1.9733  0.8543
15427SOL     OW47721   5.962   1.914   0.278  0.1946 -0.5074  0.5407
15427SOL    HW147722   5.882   1.964   0.260 -1.0000 -1.1774  3.4241
15427SOL    HW247723   5.936   1.822   0.270  1.5043 -0.7860 -1.3278
15428SOL     OW47724   6.728   7.475   4.054  0.4129  0.1125 -0.0989
15428SOL    HW147725   6.718   7.394   4.104  1.7462  1.5086  2.6186
15428SOL    HW247726   6.822   7.487   4.046  0.2985  2.3291  1.2381
15429SOL     OW47727   3.346   5.452   4.340 -0.3569  0.3302  0.5715
15429SOL    HW147728   3.389   5.461   4.255 -0.2299  0.5218  0.6559
15429SOL    HW247729   3.411   5.407   4.395 -0.3356  0.4513  0.6451
15430SOL     OW47730   7.043   0.243   2.187 -0.9398  0.3175 -0.1466
15430SOL    HW147731   6.985   0.295   2.131 -0.9798 -0.3868 -0.7646
15430SOL    HW247732   6.984   0.181   2.230 -0.6714 -0.3384 -0.7049
15431SOL     OW47733   2.045   6.736  12.421  0.5407 -0.0620 -0.0948
15431SOL    HW147734   1.987   6.812  12.431  0.5059 -0.1500  0.3474
15431SOL    HW247735   2.126   6.773  12.384 -0.5425 -0.2235 -2.9081
15432SOL     OW47736   3.808   5.753   9.308 -0.0484  0.1955 -0.4393
15432SOL    HW147737   3.903   5.757   9.298  0.3040  0.7892  2.1978
15432SOL    HW247738   3.781   5.678   9.256  2.0451 -0.6705 -0.3672
15433SOL     OW47739   4.465   3.738   4.592 -0.1949  0.0498 -0.1862
15433SOL    HW147740   4.425   3.693   4.666 -1.4429  0.5466 -0.5419
15433SOL    HW247741   4.436   3.688   4.515  0.9417 -0.3536 -0.3734
15434SOL     OW47742   5.864   5.656   0.206 -0.3226  0.1345 -0.0484
15434SOL    HW147743   5.809   5.728   0.176 -0.9594  0.4690  1.8366
15434SOL    HW247744   5.814   5.615   0.277  0.1608 -1.9898 -0.8540
15435SOL     OW47745   4.386   2.515   6.809  0.1134 -0.2170 -0.0861
15435SOL    HW147746   4.345   2.555   6.886 -1.0041 -0.5934 -0.4721
15435SOL    HW247747   4.331   2.441   6.787  0.8512 -0.5746 -0.8010
15436SOL     OW47748   0.824   2.637  10.746 -0.1415  0.3500 -0.2363
15436SOL    HW147749   0.751   2.577  10.727  0.8047 -0.9559  0.1098
15436SOL    HW247750   0.878   2.635  10.668 -0.9458  2.0868 -0.8817
15437SOL     OW47751   2.272   5.478   0.292 -0.0115 -0.0058  0.3219
15437SOL    HW147752   2.194   5.524   0.261 -0.6558 -2.2047 -1.6165
15437SOL    HW247753   2.278   5.501   0.384 -2.2344  1.2270  0.2302
15438SOL     OW47754   4.454   7.597   3.049 -0.2081 -0.1373  0.2198
15438SOL    HW147755   4.491   7.544   2.978  1.3960  0.6728  0.4004
15438SOL    HW247756   4.427   7.533   3.115  0.7210 -0.7937 -0.0073
15439SOL     OW47757   1.581   5.187  11.755 -0.3471  0.2494  0.5376
15439SOL    HW147758   1.529   5.266  11.744 -1.7850 -0.1341  3.6413
15439SOL    HW247759   1.517   5.116  11.762  0.7298 -0.6828  1.3793
15440SOL     OW47760   7.930   6.347   1.356  0.5345  0.3382  0.5272
15440SOL    HW147761   7.911   6.424   1.409 -0.1850 -0.6071  1.6887
15440SOL    HW247762   7.859   6.286   1.376 -0.3668  0.3279 -2.3301
15441SOL     OW47763   5.767   4.992  11.416 -0.1954 -0.3764  0.0484
15441SOL    HW147764   5.721   4.935  11.355  0.3011 -0.1530 -0.5447
15441SOL    HW247765   5.735   5.080  11.397  0.9697 -0.1197 -0.8677
15442SOL     OW47766   1.601   5.468   4.292  0.7385  0.6071  0.2837
15442SOL    HW147767   1.579   5.427   4.376  1.1703 -0.4531 -0.1037
15442SOL    HW247768   1.689   5.504   4.305  0.6742  0.7244  0.3895
15443SOL     OW47769   6.466   2.700   9.868 -0.1437  0.5664  0.0006
15443SOL    HW147770   6.502   2.616   9.897  1.1848  1.1908  0.2288
15443SOL    HW247771   6.496   2.709   9.778 -0.7889  0.5310 -0.2225
15444SOL     OW47772   5.611   0.021  11.764  0.1344  0.0519 -0.2638
15444SOL    HW147773   5.537  -0.038  11.784 -1.5365  1.7115 -1.2536
15444SOL    HW247774   5.674   0.004  11.834 -0.5098 -2.4868 -0.1931
15445SOL     OW47775   3.291   2.949   8.003  0.0310  0.0171  0.6299
15445SOL    HW147776   3.295   3.038   8.038  1.0469 -0.5804  2.1201
15445SOL    HW247777   3.374   2.909   8.030 -0.0781 -1.1561 -0.6758
15446SOL     OW47778   4.272   7.850   9.645  0.7818 -0.1964  0.2688
15446SOL    HW147779   4.285   7.944   9.658 -0.9886 -0.1673  2.4234
15446SOL    HW247780   4.266   7.814   9.733 -2.1575 -1.7373 -0.4264
15447SOL     OW47781   2.988   5.179   0.580 -0.4367 -0.4313 -0.1640
15447SOL    HW147782   2.913   5.125   0.556 -1.1028  0.7481 -0.8291
15447SOL    HW247783   3.032   5.198   0.497 -0.5648  0.5283 -0.0240
15448SOL     OW47784   6.449   1.588   6.901 -0.5397  0.5034 -0.0129
15448SOL    HW147785   6.479   1.679   6.895 -1.4019  0.8446  0.5805
15448SOL    HW247786   6.424   1.578   6.993  0.4705 -0.6428  0.1617
15449SOL     OW47787   5.832   0.853   7.897 -0.1078  0.1131  0.1669
15449SOL    HW147788   5.794   0.900   7.970  0.6051  0.6576  0.2074
15449SOL    HW247789   5.835   0.918   7.826  0.2256 -0.0726  0.0065
15450SOL     OW47790   6.509   4.335   8.541 -0.2682 -0.8139  0.0365
15450SOL    HW147791   6.493   4.322   8.634 -2.1550  3.5743  0.5948
15450SOL    HW247792   6.603   4.321   8.531 -0.0224 -1.5136  2.5367
15451SOL     OW47793   5.994   0.239   7.837  0.4684  0.3028  0.5104
15451SOL    HW147794   5.961   0.287   7.761  1.1165 -0.5250 -0.3278
15451SOL    HW247795   6.001   0.305   7.906 -0.3897  1.0196 -0.0682
15452SOL     OW47796   7.478   2.548   1.703 -0.4244 -0.0273  0.1418
15452SOL    HW147797   7.493   2.551   1.608 -2.3662 -1.0815 -0.2521
15452SOL    HW247798   7.484   2.639   1.731  0.6618  0.2443 -0.9060
15453SOL     OW47799   4.494   6.413   3.227  0.2038 -0.0054 -0.0223
15453SOL    HW147800   4.468   6.405   3.319 -1.3257 -2.0018 -0.5471
15453SOL    HW247801   4.530   6.502   3.220 -0.8287  0.6785  2.2124
15454SOL     OW47802   6.467   3.183   7.256  0.0737  0.3661  0.1396
15454SOL    HW147803   6.413   3.116   7.215 -1.5106  0.6908  1.5903
15454SOL    HW247804   6.488   3.244   7.185  1.4152 -1.5126 -1.1668
15455SOL     OW47805   3.302   6.739   4.250 -0.6236 -0.3161 -0.1390
15455SOL    HW147806   3.350   6.809   4.207 -0.4355 -0.3483  0.0174
15455SOL    HW247807   3.212   6.771   4.254 -0.5248 -0.0500 -0.0012
15456SOL     OW47808   1.637   3.559   0.271 -0.1600 -0.1077  0.4865
15456SOL    HW147809   1.545   3.565   0.293 -0.6258 -0.7950 -1.1075
15456SOL    HW247810   1.639   3.556   0.175  1.4527 -0.9560  0.5013
15457SOL     OW47811   4.277   1.179   2.667  0.0515  0.1340  0.0268
15457SOL    HW147812   4.259   1.240   2.595 -0.7569 -0.3172 -0.1716
15457SOL    HW247813   4.261   1.093   2.629  0.0832 -0.1318  0.6167
15458SOL     OW47814   2.328   0.410   7.228 -0.3047  0.0193 -0.2712
15458SOL    HW147815   2.278   0.448   7.300  0.7144  1.2268 -0.1785
15458SOL    HW247816   2.420   0.420   7.254  0.0539 -0.2731 -1.3639
15459SOL     OW47817   2.114   4.785   8.788  0.5266 -0.3859 -0.0254
15459SOL    HW147818   2.041   4.758   8.733  1.3919 -0.4367 -1.1825
15459SOL    HW247819   2.192   4.760   8.739  1.3385  1.2597  0.3459
15460SOL     OW47820   3.687   2.841   5.293  0.3221  0.3089  0.2269
15460SOL    HW147821   3.665   2.933   5.308 -0.2134  0.0981  0.7418
15460SOL    HW247822   3.783   2.840   5.288  0.2927  1.0542 -0.9017
15461SOL     OW47823   5.325   1.412   9.214  0.2230  0.0369 -0.4139
15461SOL    HW147824   5.239   1.439   9.182  0.2492  0.8238  0.1400
15461SOL    HW247825   5.386   1.469   9.168  0.2561  1.2347  1.0380
15462SOL     OW47826   5.943   6.429   2.656 -0.0858  0.5491  0.1067
15462SOL    HW147827   5.962   6.473   2.572 -2.2243 -2.6716 -2.3150
15462SOL    HW247828   6.019   6.373   2.671 -1.0339 -1.3185 -1.5909
15463SOL     OW47829   0.655   1.421   7.038  0.5075 -0.1531  0.3076
15463SOL    HW147830   0.654   1.460   6.951 -0.5519 -1.0775 -0.1219
15463SOL    HW247831   0.744   1.386   7.047  1.2411  1.6640  0.4215
15464SOL     OW47832   6.006   0.065  10.536 -0.0747 -0.0085  0.1458
15464SOL    HW147833   5.916   0.068  10.568 -0.2028 -0.6127 -0.1586
15464SOL    HW247834   5.998   0.070  10.441  0.3289  2.3910  0.1742
15465SOL     OW47835   4.227   2.314   0.333 -0.1101  0.3314 -0.4476
15465SOL    HW147836   4.192   2.296   0.246 -1.8214 -3.4880  0.8285
15465SOL    HW247837   4.161   2.371   0.374 -1.5964 -1.3618 -0.3293
15466SOL     OW47838   1.371   4.797   0.097 -0.2988  0.3451 -0.1238
15466SOL    HW147839   1.366   4.892   0.092 -0.9646  0.3375  0.1810
15466SOL    HW247840   1.414   4.779   0.181  0.7058  0.3796 -0.6217
15467SOL     OW47841   1.085   4.788   1.675 -0.1283  0.7017  0.0795
15467SOL    HW147842   1.108   4.877   1.650  0.1439  0.9419  1.1405
15467SOL    HW247843   1.105   4.783   1.769 -1.3581 -0.0817  0.3186
15468SOL     OW47844   6.351   4.637  11.993  0.1424 -0.0923  0.1845
15468SOL    HW147845   6.260   4.637  11.962 -0.6425 -0.6263  2.3285
15468SOL    HW247846   6.384   4.723  11.967 -0.2999 -0.5810 -2.3177
15469SOL     OW47847   2.578   1.165   9.855  0.3259 -0.5017 -0.4700
15469SOL    HW147848   2.639   1.222   9.902  0.3645 -0.1154 -0.9841
15469SOL    HW247849   2.500   1.163   9.910  0.1734  0.3812 -0.6378
15470SOL     OW47850   0.248   6.604   3.850  0.3483 -0.0488 -0.2599
15470SOL    HW147851   0.191   6.535   3.813  0.6326 -0.9167  0.8647
15470SOL    HW247852   0.221   6.610   3.942  1.4912  0.1323  0.0730
15471SOL     OW47853   7.167   4.393  12.022  0.1451 -0.0078 -0.3806
15471SOL    HW147854   7.072   4.386  12.010  0.0474 -0.5233  0.5749
15471SOL    HW247855   7.203   4.323  11.968 -0.2088 -1.5785  1.3261
15472SOL     OW47856   3.153   7.445  11.193 -0.3840 -0.2681  0.2265
15472SOL    HW147857   3.140   7.439  11.288 -0.7137  0.2527  0.2145
15472SOL    HW247858   3.084   7.504  11.163  0.1744  0.1584 -0.2407
15473SOL     OW47859   4.099   5.483   5.130  0.1119  0.4693  0.0153
15473SOL    HW147860   4.143   5.434   5.060 -0.1120 -1.0052  0.8527
15473SOL    HW247861   4.129   5.441   5.211 -2.3123 -0.2350  0.6520
15474SOL     OW47862   5.607   7.448  11.169  0.5768 -0.2899 -0.1066
15474SOL    HW147863   5.602   7.440  11.264 -2.3973 -0.8790 -0.2361
15474SOL    HW247864   5.577   7.363  11.136  2.4144 -0.4190 -1.6288
15475SOL     OW47865   6.311   4.373   9.490 -0.1202 -0.2816  0.4211
15475SOL    HW147866   6.295   4.445   9.551  0.6212  0.3271 -0.0701
15475SOL    HW247867   6.320   4.295   9.545 -2.5714 -0.3304  0.8535
15476SOL     OW47868   5.089   5.950   1.893 -0.0831 -0.2805 -0.4011
15476SOL    HW147869   5.101   6.044   1.895 -1.2105 -0.0979 -1.3850
15476SOL    HW247870   5.122   5.923   1.807 -0.2395 -0.7130 -0.3300
15477SOL     OW47871   2.845   4.164   5.121  0.1630  0.3141 -0.3212
15477SOL    HW147872   2.768   4.112   5.100 -0.0553  0.6823 -0.4466
15477SOL    HW247873   2.856   4.153   5.215 -0.0309  0.2440 -0.3062
15478SOL     OW47874   6.065   7.570   4.142  0.0523 -0.6674  0.2842
15478SOL    HW147875   6.047   7.652   4.189 -0.2389  0.7765 -2.1446
15478SOL    HW247876   5.979   7.532   4.126 -0.0481  0.0495 -1.0068
15479SOL     OW47877   5.955   6.555   1.761  0.6061  0.7206  0.1596
15479SOL    HW147878   5.954   6.650   1.765  0.2088  1.0168 -3.3924
15479SOL    HW247879   6.041   6.533   1.723  0.2034 -0.1961 -0.2617
15480SOL     OW47880   5.429   1.438  10.610 -0.3023  0.2929  0.0607
15480SOL    HW147881   5.346   1.465  10.650 -0.6811  0.1269 -0.5963
15480SOL    HW247882   5.416   1.346  10.586  0.9059 -0.4577  2.0858
15481SOL     OW47883   4.621   3.310   9.503 -0.4863 -0.4827  0.6552
15481SOL    HW147884   4.585   3.291   9.590  1.2108 -0.7677  1.3308
15481SOL    HW247885   4.603   3.403   9.489  1.4918  0.2684  2.5006
15482SOL     OW47886   5.911   2.071   6.481 -0.2891 -0.3420 -0.2606
15482SOL    HW147887   5.986   2.012   6.480  1.0181  1.2489 -0.9402
15482SOL    HW247888   5.944   2.151   6.521 -1.9616  0.0204  0.4743
15483SOL     OW47889   2.944   6.259   0.609  0.1398  0.0393 -0.2093
15483SOL    HW147890   2.996   6.229   0.684  0.4846  1.0403 -0.0393
15483SOL    HW247891   2.970   6.200   0.537  2.8970  1.5918 -0.6216
15484SOL     OW47892   3.860   5.559   6.924 -0.2362 -0.5527  0.1397
15484SOL    HW147893   3.870   5.499   6.851  2.4058  0.0825 -0.1376
15484SOL    HW247894   3.816   5.636   6.887  0.0106 -0.7096 -0.4809
15485SOL     OW47895   6.735   3.954   1.800  0.7603  0.2328  0.1093
15485SOL    HW147896   6.667   3.908   1.849  0.3818 -0.3676 -0.9525
15485SOL    HW247897   6.803   3.972   1.864 -0.6774  1.4661  1.3667
15486SOL     OW47898   3.228   5.196   1.697  0.0684 -0.0314  0.1707
15486SOL    HW147899   3.216   5.119   1.752  0.1523  0.1608  0.4630
15486SOL    HW247900   3.278   5.257   1.752 -1.2612  0.8034  0.4812
15487SOL     OW47901   5.940   3.483  12.287 -0.5484  0.1225  0.2731
15487SOL    HW147902   5.876   3.480  12.358 -0.2381 -0.1739  0.5437
15487SOL    HW247903   5.925   3.568  12.245 -1.0704  0.0848  0.3757
15488SOL     OW47904   1.848   1.605   6.868 -0.3706 -0.0079 -0.6426
15488SOL    HW147905   1.904   1.666   6.821  0.4628 -1.0997 -1.1073
15488SOL    HW247906   1.760   1.644   6.863  0.2889  1.6433 -0.0350
15489SOL     OW47907   7.490   6.501   1.919 -0.5299  0.5641 -0.3043
15489SOL    HW147908   7.528   6.583   1.950 -0.4334 -0.0273  1.2295
15489SOL    HW247909   7.561   6.437   1.928 -0.9689  0.0648 -0.3115
15490SOL     OW47910   3.762   5.345   9.008 -0.3211 -0.0739 -0.4278
15490SOL    HW147911   3.670   5.321   9.015  0.2177 -2.2427 -0.2187
15490SOL    HW247912   3.798   5.284   8.943  0.9957  0.6806 -0.4447
15491SOL     OW47913   0.475   1.452   1.708 -0.2216  0.3256 -0.0790
15491SOL    HW147914   0.493   1.546   1.712  1.1974  0.2408 -2.4131
15491SOL    HW247915   0.556   1.410   1.735 -0.4459 -0.2077 -0.2156
15492SOL     OW47916   2.743   5.695   0.661 -0.3571  0.1592 -0.6609
15492SOL    HW147917   2.756   5.708   0.567  0.2573  1.5061 -0.4225
15492SOL    HW247918   2.819   5.645   0.689  0.2103  0.9948 -0.6591
15493SOL     OW47919   5.926   5.838  10.779 -0.5527 -0.1475 -0.1835
15493SOL    HW147920   5.874   5.915  10.754 -2.3127 -0.4359  2.3079
15493SOL    HW247921   5.931   5.786  10.698 -1.3121  1.4604 -1.3209
15494SOL     OW47922   2.852   2.391   8.907 -0.2815 -0.4330 -0.0923
15494SOL    HW147923   2.853   2.382   8.811 -2.0177 -2.7128 -0.0022
15494SOL    HW247924   2.815   2.478   8.923  0.8351  0.3370 -1.4659
15495SOL     OW47925   7.759   4.688  10.087 -0.2372 -0.1146  0.3223
15495SOL    HW147926   7.700   4.676  10.013  0.8778 -3.9329 -0.1858
15495SOL    HW247927   7.701   4.697  10.163 -1.4463 -0.4508 -0.5335
15496SOL     OW47928   0.146   5.556   1.296 -0.3216  0.1336  0.2108
15496SOL    HW147929   0.065   5.604   1.311 -0.3623 -0.0750  0.6711
15496SOL    HW247930   0.207   5.591   1.360  0.0387  0.4842 -0.3182
15497SOL     OW47931   5.925   2.084   9.707 -0.3879  0.3178  0.1371
15497SOL    HW147932   5.906   2.028   9.782  1.4415  0.2868  0.6370
15497SOL    HW247933   5.962   2.164   9.746 -1.1293  1.0608 -0.6584
15498SOL     OW47934   3.526   6.559   8.914 -0.2275 -0.7114  0.3104
15498SOL    HW147935   3.536   6.516   8.829 -0.8877 -1.1589  0.4491
15498SOL    HW247936   3.477   6.495   8.967  1.4384 -1.0608  1.4931
15499SOL     OW47937   6.181   5.948   2.663  0.6518  0.3276 -0.4871
15499SOL    HW147938   6.125   5.878   2.697 -1.2080  1.5872 -0.8160
15499SOL    HW247939   6.262   5.903   2.637  0.7422 -1.2242  2.1080
15500SOL     OW47940   1.236   4.832   9.886  0.5003 -0.4876  0.0755
15500SOL    HW147941   1.227   4.811   9.792 -3.7836 -0.5541  0.3044
15500SOL    HW247942   1.253   4.926   9.888  1.3755 -0.6062 -0.7356
15501SOL     OW47943   0.685   3.365   7.803 -0.6528 -0.4160 -0.2745
15501SOL    HW147944   0.736   3.328   7.876 -0.5941 -1.1422 -0.6652
15501SOL    HW247945   0.654   3.449   7.835 -1.4958 -1.1736  0.9648
15502SOL     OW47946   2.657   2.359   0.418  0.4341 -0.3174 -0.1565
15502SOL    HW147947   2.610   2.297   0.474  1.9390 -1.9234 -0.5762
15502SOL    HW247948   2.694   2.423   0.478  2.1753 -2.1136  0.7897
15503SOL     OW47949   6.489   3.286   1.474  0.4254  0.1063 -0.4910
15503SOL    HW147950   6.521   3.376   1.469 -0.7485  0.4934 -1.4422
15503SOL    HW247951   6.395   3.294   1.484  0.4442 -1.0232  1.0391
15504SOL     OW47952   7.206   5.278   1.907  0.2795  0.5932 -0.3133
15504SOL    HW147953   7.124   5.231   1.925  1.4048 -0.6631  2.0743
15504SOL    HW247954   7.272   5.230   1.956  1.8099  3.8194  1.1114
15505SOL     OW47955   2.720   0.313   3.217  0.1168  0.0241 -0.0716
15505SOL    HW147956   2.806   0.329   3.255  0.4320  0.1458 -0.8262
15505SOL    HW247957   2.700   0.393   3.169  0.1335 -0.4865 -0.9331
15506SOL     OW47958   7.687   5.098  11.351  0.2035 -0.3432  0.0687
15506SOL    HW147959   7.642   5.138  11.277 -0.3710  0.6505  0.9308
15506SOL    HW247960   7.619   5.086  11.417  1.0462  0.5257  1.1320
15507SOL     OW47961   3.327   4.281   4.134  0.3125  0.2381 -0.0179
15507SOL    HW147962   3.348   4.375   4.136 -0.5287  0.4332  1.4976
15507SOL    HW247963   3.297   4.265   4.045 -2.3869  2.1376  0.4132
15508SOL     OW47964   7.496   6.798   9.328  0.0618  0.2991  0.4895
15508SOL    HW147965   7.448   6.754   9.399  0.3543 -2.0023 -0.6292
15508SOL    HW247966   7.443   6.782   9.250  2.0799 -1.4936 -0.6129
15509SOL     OW47967   3.247   3.450   1.541 -1.2294  0.0371  0.1577
15509SOL    HW147968   3.275   3.414   1.458 -1.2255 -2.5087  1.1907
15509SOL    HW247969   3.158   3.417   1.553 -0.6906 -0.9519  1.8182
15510SOL     OW47970   3.543   3.125   1.645 -0.2800 -0.0990  0.0319
15510SOL    HW147971   3.587   3.189   1.589  1.2571 -0.9008  0.2581
15510SOL    HW247972   3.475   3.087   1.589 -0.1058  0.5324 -0.6290
15511SOL     OW47973   7.613   0.908   6.938  0.1706 -0.5840  0.4419
15511SOL    HW147974   7.602   0.815   6.920 -0.7806 -0.2640 -0.7648
15511SOL    HW247975   7.544   0.929   7.001  0.4499 -0.7139  0.7924
15512SOL     OW47976   0.439   6.725   8.764 -0.0911 -0.0024  0.0066
15512SOL    HW147977   0.381   6.753   8.835 -1.3949  0.8455 -1.3473
15512SOL    HW247978   0.381   6.684   8.700  0.8513  0.4222 -1.1637
15513SOL     OW47979   7.439   1.485   2.181  0.3258  0.2193 -0.0697
15513SOL    HW147980   7.386   1.421   2.228  1.1503  0.5136  1.3124
15513SOL    HW247981   7.463   1.550   2.247  0.7559  1.1569 -1.1087
15514SOL     OW47982   3.163   4.429   5.315  0.2435 -0.0475 -0.3665
15514SOL    HW147983   3.152   4.350   5.262  1.7188  0.2991 -1.2460
15514SOL    HW247984   3.074   4.461   5.329 -0.4223 -2.1653  0.5041
15515SOL     OW47985   2.403   3.317   9.928  0.1629  0.1552  0.1931
15515SOL    HW147986   2.462   3.387   9.957  0.8134 -0.0860 -0.5208
15515SOL    HW247987   2.358   3.354   9.852 -1.2060  0.6213  1.1854
15516SOL     OW47988   0.354   1.582   6.947  0.2843  0.6685 -0.1034
15516SOL    HW147989   0.363   1.598   7.041  1.9561  2.2718 -0.4566
15516SOL    HW247990   0.444   1.585   6.914 -0.3599  1.5228 -1.9216
15517SOL     OW47991   6.761   7.618   3.794 -0.4671 -0.1847 -0.4491
15517SOL    HW147992   6.692   7.666   3.749  0.0010  1.3097  0.3736
15517SOL    HW247993   6.727   7.602   3.882 -0.1670 -0.3542 -0.3595
15518SOL     OW47994   2.173   7.202   7.851  0.0589 -0.1690  0.2195
15518SOL    HW147995   2.180   7.136   7.920  1.8027  0.2746  0.5071
15518SOL    HW247996   2.143   7.153   7.774 -1.5266 -0.7408  1.1466
15519SOL     OW47997   4.134   5.386  10.013  0.2450 -0.1810  0.2903
15519SOL    HW147998   4.115   5.456  10.075  1.5043 -0.6214  1.2011
15519SOL    HW247999   4.064   5.322  10.028 -0.1047  0.2266  0.4360
15520SOL     OW48000   2.252   3.676   5.660  0.0395 -0.2599  0.1028
15520SOL    HW148001   2.332   3.631   5.633  0.3642  0.8695 -0.9103
15520SOL    HW248002   2.243   3.657   5.753  3.3515  2.2818  1.1364
15521SOL     OW48003   7.658   6.952   0.783  0.3735  0.7909  0.3888
15521SOL    HW148004   7.609   6.994   0.853 -1.1044 -0.5071  0.1849
15521SOL    HW248005   7.695   6.873   0.824  2.9581  2.0687  0.7265
15522SOL     OW48006   3.201   7.675   8.261 -0.3153 -0.5083  0.1987
15522SOL    HW148007   3.156   7.684   8.177 -1.8043  0.5044  1.0676
15522SOL    HW248008   3.229   7.583   8.262 -2.1981 -1.1522 -0.4885
15523SOL     OW48009   5.789   2.987   0.291  0.4174 -0.2320 -0.0541
15523SOL    HW148010   5.827   2.911   0.248  0.3402 -0.3496  0.0831
15523SOL    HW248011   5.861   3.024   0.343  0.7049  0.3184 -0.8178
15524SOL     OW48012   5.140   1.538   6.534  0.1485 -0.0060  0.3345
15524SOL    HW148013   5.146   1.603   6.464  1.0631 -0.1341  0.2866
15524SOL    HW248014   5.049   1.545   6.565  0.9399  3.5410  2.4539
15525SOL     OW48015   0.873   6.645   9.498 -0.3579 -0.0618 -0.1296
15525SOL    HW148016   0.942   6.579   9.505  1.1144  1.4722  0.7782
15525SOL    HW248017   0.791   6.596   9.506  0.6860 -1.6255  1.9179
15526SOL     OW48018   3.519   5.929   6.787 -0.3547  0.3975 -0.3335
15526SOL    HW148019   3.519   5.989   6.713  0.0035  1.4017  0.4574
15526SOL    HW248020   3.440   5.951   6.836  0.0507  0.5773  0.2442
15527SOL     OW48021   2.827   4.535   3.317 -0.4686  0.1648  0.0493
15527SOL    HW148022   2.767   4.533   3.392 -0.2169  1.5840  0.3127
15527SOL    HW248023   2.910   4.502   3.352 -0.3392  0.8673  0.4131
15528SOL     OW48024   2.645   0.413   5.918 -0.4671 -0.2493 -0.0306
15528SOL    HW148025   2.663   0.461   5.998  0.9064 -0.5509 -0.1343
15528SOL    HW248026   2.619   0.479   5.854  0.0843  0.1958  0.2040
15529SOL     OW48027   7.713   6.594   3.459 -0.4810  0.3755  0.0207
15529SOL    HW148028   7.797   6.639   3.467 -0.8458  1.0261  0.3169
15529SOL    HW248029   7.649   6.664   3.445 -0.9293 -0.1401 -0.5709
15530SOL     OW48030   1.294   1.757   6.715 -0.1646 -0.0053 -0.1820
15530SOL    HW148031   1.340   1.698   6.655 -0.0234  0.0635 -0.1424
15530SOL    HW248032   1.270   1.701   6.789  1.1880  0.2717  0.4990
15531SOL     OW48033   0.705   6.967  10.008 -0.0654  0.1415  0.0853
15531SOL    HW148034   0.790   6.997  10.038  0.7444  0.9812 -2.7543
15531SOL    HW248035   0.642   7.027  10.048  0.7976  0.4710  0.9730
15532SOL     OW48036   3.880   6.090   4.129  0.1776  0.1236 -0.0397
15532SOL    HW148037   3.968   6.106   4.096  1.6299 -3.1641  1.7516
15532SOL    HW248038   3.856   6.005   4.094 -1.8162  0.4164  0.4764
15533SOL     OW48039   0.373   1.766  11.094  0.5812 -0.1953 -0.3692
15533SOL    HW148040   0.322   1.801  11.167 -0.1266 -0.7368 -0.5861
15533SOL    HW248041   0.332   1.805  11.016 -0.9265 -2.2459 -0.6973
15534SOL     OW48042   4.593   5.965   1.037 -0.1763 -0.2235 -0.4706
15534SOL    HW148043   4.625   5.896   0.978 -0.6117 -0.2079 -0.7215
15534SOL    HW248044   4.506   5.987   1.005 -1.2244 -1.5354  1.2667
15535SOL     OW48045   3.259   5.187   7.901  0.5674  0.1593 -0.0537
15535SOL    HW148046   3.339   5.240   7.893 -0.3977  1.7625  0.4672
15535SOL    HW248047   3.194   5.234   7.849 -0.0249 -1.2172 -0.5987
15536SOL     OW48048   1.424   6.266   9.350  0.8510 -0.0284 -0.1171
15536SOL    HW148049   1.385   6.316   9.422  1.5895  1.8814 -0.9944
15536SOL    HW248050   1.512   6.302   9.340  1.3271 -1.3496 -0.9624
15537SOL     OW48051   6.620   1.662   9.223  0.1186  0.1380  0.2318
15537SOL    HW148052   6.652   1.722   9.290 -2.9689  1.7204  0.4739
15537SOL    HW248053   6.584   1.719   9.155 -0.5334 -1.4231 -0.7975
15538SOL     OW48054   1.075   0.723   7.268 -0.4752  0.2913  0.2075
15538SOL    HW148055   1.053   0.791   7.330  0.8007  0.7788  0.1516
15538SOL    HW248056   1.077   0.642   7.320  1.2296  0.7827  0.9826
15539SOL     OW48057   0.354   6.848   6.086  0.0806  0.2446 -0.1906
15539SOL    HW148058   0.384   6.759   6.070 -0.7955 -0.1184  0.1532
15539SOL    HW248059   0.371   6.863   6.179  2.1153  1.1874 -0.6415
15540SOL     OW48060   5.417   5.412   1.872  0.1553  0.2014  0.1836
15540SOL    HW148061   5.495   5.385   1.920 -1.3649 -0.1969  2.6359
15540SOL    HW248062   5.346   5.359   1.909 -0.9191 -1.8996 -4.1886
15541SOL     OW48063   5.118   2.110   7.080  0.0802  0.0952  0.3415
15541SOL    HW148064   5.210   2.133   7.065 -0.2823  0.5723 -1.3797
15541SOL    HW248065   5.070   2.158   7.013 -1.4576 -0.0365  1.3064
15542SOL     OW48066   7.081   1.150   9.634  0.0698  0.1246  0.5364
15542SOL    HW148067   7.025   1.208   9.686 -0.1606  1.4838 -1.1652
15542SOL    HW248068   7.153   1.129   9.693  0.2441  2.2801  1.2007
15543SOL     OW48069   5.118   0.522   4.620  0.0780  0.4258 -0.6624
15543SOL    HW148070   5.075   0.441   4.648 -0.7117  0.9268 -0.3716
15543SOL    HW248071   5.088   0.588   4.683  0.4969  0.9928 -1.0453
15544SOL     OW48072   0.735   1.516   7.643 -0.4655  0.1631  0.1775
15544SOL    HW148073   0.791   1.457   7.592  1.9623  1.2276  1.4289
15544SOL    HW248074   0.674   1.458   7.688  1.0966 -1.3372  0.4775
15545SOL     OW48075   6.281   2.689   3.622  0.7528 -0.2077 -0.1736
15545SOL    HW148076   6.344   2.671   3.691  0.9161  0.0074 -0.2688
15545SOL    HW248077   6.217   2.748   3.663  0.8875 -0.0242 -0.2256
15546SOL     OW48078   0.544   5.336   5.637 -0.0000  0.6762 -0.1059
15546SOL    HW148079   0.562   5.412   5.582  0.9243 -1.2784 -2.7166
15546SOL    HW248080   0.627   5.317   5.681 -0.3782  1.4390  0.9837
15547SOL     OW48081   4.500   1.138   5.867 -0.1189 -0.1469 -0.0513
15547SOL    HW148082   4.579   1.085   5.853  0.7301  1.0205  0.1755
15547SOL    HW248083   4.520   1.221   5.825 -0.8486  0.5035  0.8614
15548SOL     OW48084   1.561   7.708   9.594  0.1769  0.1271 -0.0824
15548SOL    HW148085   1.487   7.677   9.646  0.5825 -3.4116 -1.3407
15548SOL    HW248086   1.638   7.670   9.636  0.6342 -1.6322 -2.3505
15549SOL     OW48087   0.324   4.645   0.317  0.3955 -0.5825 -0.3313
15549SOL    HW148088   0.317   4.723   0.372  0.3182  1.0916 -2.5796
15549SOL    HW248089   0.399   4.662   0.260  1.8423 -3.2178  0.5982
15550SOL     OW48090   6.918   1.108   7.959  0.3879 -0.0281 -0.0989
15550SOL    HW148091   6.896   1.034   8.016  0.3543 -1.0050 -1.3360
15550SOL    HW248092   6.837   1.126   7.912  0.5539  0.4231 -0.2109
15551SOL     OW48093   2.891   3.752   1.612 -0.0781  0.5108 -0.1648
15551SOL    HW148094   2.958   3.771   1.677 -0.5354 -1.3481  0.9099
15551SOL    HW248095   2.841   3.679   1.649 -1.6540  0.7514 -1.6801
15552SOL     OW48096   5.189   2.414   3.610  1.0251  0.1679  0.0980
15552SOL    HW148097   5.130   2.434   3.537 -0.7927  0.2319  1.4899
15552SOL    HW248098   5.209   2.499   3.649  1.7751  0.1126 -0.1514
15553SOL     OW48099   6.732   2.713   4.349 -0.7540  0.3855 -0.2064
15553SOL    HW148100   6.786   2.788   4.323 -1.6329  0.8119 -0.8834
15553SOL    HW248101   6.787   2.637   4.334  0.0307  0.8731  0.1403
15554SOL     OW48102   7.426   2.434   4.017 -0.5910  0.1501  0.1995
15554SOL    HW148103   7.458   2.378   3.946  0.8288  0.7963  0.2887
15554SOL    HW248104   7.454   2.390   4.097 -1.1032  0.0520  0.3267
15555SOL     OW48105   5.243   3.780   2.497 -0.7408  0.5169  0.1668
15555SOL    HW148106   5.328   3.823   2.488 -0.6638  0.2019 -0.7329
15555SOL    HW248107   5.254   3.695   2.455 -1.4626  0.4255  0.1469
15556SOL     OW48108   0.314   4.376   0.239 -0.0146  0.0315  0.3384
15556SOL    HW148109   0.389   4.349   0.292  0.3823  0.7085  0.1432
15556SOL    HW248110   0.316   4.472   0.243 -0.8945  0.0518  0.3624
15557SOL     OW48111   4.583   1.901  10.056 -0.3440  0.8070 -0.0341
15557SOL    HW148112   4.578   1.850   9.976 -2.1515 -0.2127  0.6662
15557SOL    HW248113   4.522   1.974  10.042 -1.1794  0.2584  0.6159
15558SOL     OW48114   2.684   4.669   6.906  0.1579  0.2440 -0.2556
15558SOL    HW148115   2.631   4.656   6.828 -0.3645  0.3671  0.0765
15558SOL    HW248116   2.705   4.581   6.937  0.8579  0.1897 -0.8591
15559SOL     OW48117   7.756   4.825   7.536 -0.0874  0.4018  0.1040
15559SOL    HW148118   7.685   4.887   7.519 -0.2149  0.3792  0.5500
15559SOL    HW248119   7.764   4.776   7.455 -0.3188  0.6704 -0.0839
15560SOL     OW48120   3.643   5.151   2.895 -0.7309 -0.0192  0.9295
15560SOL    HW148121   3.731   5.143   2.856 -0.2871  3.3541  0.9008
15560SOL    HW248122   3.589   5.185   2.824 -1.4333  0.3351  1.6264
15561SOL     OW48123   1.422   6.627   4.005 -0.5496  0.3007 -0.3932
15561SOL    HW148124   1.352   6.691   3.992 -0.0814  0.9872  0.3819
15561SOL    HW248125   1.400   6.556   3.944 -0.9056  1.3301 -1.5245
15562SOL     OW48126   1.651   0.506   9.257  0.3371 -0.0283 -0.2081
15562SOL    HW148127   1.662   0.413   9.236 -1.7373 -0.1619 -0.9471
15562SOL    HW248128   1.714   0.551   9.200  1.5192 -0.9700  0.3193
15563SOL     OW48129   5.193   7.932   6.216 -0.4310 -0.4578 -0.4302
15563SOL    HW148130   5.175   7.880   6.294 -1.2278 -1.0131 -0.9618
15563SOL    HW248131   5.288   7.941   6.214 -0.3702 -0.8258  0.3448
15564SOL     OW48132   7.077   2.899  11.023 -0.0770 -0.3400  0.0830
15564SOL    HW148133   6.983   2.898  11.010 -0.0082  0.7376 -0.5972
15564SOL    HW248134   7.100   2.991  11.029  0.5476 -0.5801  3.4229
15565SOL     OW48135   2.283   7.826   9.533  0.3340 -0.1810  0.5977
15565SOL    HW148136   2.278   7.906   9.480  0.2153  0.3930  1.4556
15565SOL    HW248137   2.257   7.756   9.473 -0.8617  0.5807  0.1958
15566SOL     OW48138   3.959   0.189  10.635  0.6479 -0.3178 -0.4251
15566SOL    HW148139   4.054   0.192  10.627  0.7199 -1.2943 -0.0174
15566SOL    HW248140   3.932   0.119  10.575  0.3501 -1.2088  0.7098
15567SOL     OW48141   3.638   0.539   9.579 -0.3862 -0.3463  0.1619
15567SOL    HW148142   3.705   0.539   9.648 -1.5325 -0.8255  1.3182
15567SOL    HW248143   3.585   0.617   9.598 -0.6978 -0.4714 -0.1822
15568SOL     OW48144   5.578   7.012   7.246  0.2196  0.7291 -0.0180
15568SOL    HW148145   5.548   6.960   7.320  1.9039  0.1283  0.2819
15568SOL    HW248146   5.531   6.977   7.171  0.1235 -0.1430  0.4385
15569SOL     OW48147   5.671   0.892   7.089  0.3436 -0.4487  0.5581
15569SOL    HW148148   5.724   0.819   7.120  0.0266 -0.2231  1.6756
15569SOL    HW248149   5.587   0.852   7.064 -0.0789 -0.3991  1.8279
15570SOL     OW48150   1.387   2.186   9.934  0.0033  0.1091  0.6199
15570SOL    HW148151   1.412   2.195  10.026  2.7782  0.7761 -0.0994
15570SOL    HW248152   1.413   2.097   9.910 -2.1332 -0.6084  0.8172
15571SOL     OW48153   6.377   5.351  11.284  0.0679 -0.6559  0.4137
15571SOL    HW148154   6.327   5.413  11.232  2.3924 -0.2969 -1.5769
15571SOL    HW248155   6.344   5.362  11.373 -0.9628  1.9939 -0.2082
15572SOL     OW48156   3.515   4.986   4.139  0.5029  0.3397 -0.0118
15572SOL    HW148157   3.565   5.063   4.165  0.5065  0.6608 -0.9302
15572SOL    HW248158   3.496   5.000   4.046 -0.6472 -0.1311  0.1314
15573SOL     OW48159   2.165   7.540   3.093  0.6503 -0.5952 -0.0586
15573SOL    HW148160   2.212   7.488   3.157  0.8891  0.6752  0.8442
15573SOL    HW248161   2.233   7.592   3.049  0.4186 -1.0035 -0.9276
15574SOL     OW48162   0.339   1.662   5.630 -0.8274  0.0893 -0.3691
15574SOL    HW148163   0.321   1.724   5.700  0.5220 -0.7984  0.8123
15574SOL    HW248164   0.262   1.607   5.626 -0.4666 -0.5841  1.2452
15575SOL     OW48165   6.569   4.611   9.429  0.1703  0.5819 -0.1959
15575SOL    HW148166   6.576   4.517   9.447 -0.7507  0.3407 -1.0540
15575SOL    HW248167   6.477   4.632   9.444  0.5810  1.6085  1.1163
15576SOL     OW48168   4.305   6.547   5.537  0.0829 -0.3906 -0.1651
15576SOL    HW148169   4.225   6.598   5.524  0.5081  0.2865 -0.2322
15576SOL    HW248170   4.376   6.610   5.521  0.6268 -0.8911  0.2114
15577SOL     OW48171   6.605   5.881   8.456 -0.2861 -0.0517 -0.4661
15577SOL    HW148172   6.532   5.828   8.488 -1.0162  2.3892  2.2665
15577SOL    HW248173   6.564   5.948   8.401  0.2144 -0.0880 -0.8960
15578SOL     OW48174   0.814   0.043   7.590 -0.0879  0.3998 -0.7725
15578SOL    HW148175   0.833  -0.010   7.514 -2.3870 -1.5040 -0.1488
15578SOL    HW248176   0.833  -0.014   7.665 -1.7932  0.6870 -0.0659
15579SOL     OW48177   3.641   1.936   3.222 -0.7623 -0.3448  0.6438
15579SOL    HW148178   3.578   1.868   3.246 -2.1549  0.1531 -1.3514
15579SOL    HW248179   3.718   1.887   3.190 -0.6541 -0.9512  1.7754
15580SOL     OW48180   4.308   0.752   7.309 -0.1964  0.6866  0.8241
15580SOL    HW148181   4.308   0.673   7.255 -0.3138  1.1000  0.2042
15580SOL    HW248182   4.245   0.735   7.379 -0.0148  0.1302  0.8517
15581SOL     OW48183   2.493   7.396   7.108 -0.1723 -0.4054  0.2452
15581SOL    HW148184   2.445   7.318   7.079 -1.0620  0.1666  0.1060
15581SOL    HW248185   2.503   7.449   7.028 -0.0774 -0.1274  0.4379
15582SOL     OW48186   0.594   3.296  12.169 -0.0480  0.1732  0.1636
15582SOL    HW148187   0.534   3.265  12.101  1.7440  0.4774 -1.6216
15582SOL    HW248188   0.642   3.218  12.196  0.8822  0.4518 -0.6434
15583SOL     OW48189   7.900   1.920   2.275 -0.4306 -0.5476 -0.1164
15583SOL    HW148190   7.890   1.996   2.333  0.5851 -0.9120  0.5620
15583SOL    HW248191   7.885   1.844   2.332 -1.9081 -0.8655 -0.8910
15584SOL     OW48192   2.493   0.856   9.071 -0.2068  0.2285 -0.7696
15584SOL    HW148193   2.560   0.903   9.022 -0.1532  0.7556 -0.1978
15584SOL    HW248194   2.529   0.768   9.084  0.4307  0.5532 -0.3419
15585SOL     OW48195   6.515   1.331   0.676  0.2367 -0.5659  0.3772
15585SOL    HW148196   6.556   1.342   0.590 -1.3483  0.9406 -0.2543
15585SOL    HW248197   6.533   1.241   0.700  2.6418 -0.3831 -0.4953
15586SOL     OW48198   5.200   5.927   4.641  0.2723 -0.2920 -0.0570
15586SOL    HW148199   5.265   5.994   4.663 -0.8187 -0.0715  2.8638
15586SOL    HW248200   5.117   5.962   4.673 -0.4002 -2.8403  1.2674
15587SOL     OW48201   6.082   4.233   8.370  0.7587 -0.3297 -0.5143
15587SOL    HW148202   6.162   4.215   8.321  0.9261 -0.0984 -0.3285
15587SOL    HW248203   6.030   4.287   8.312  2.0088  2.0825  0.4707
15588SOL     OW48204   5.599   4.546   6.124  0.7650  0.3370 -0.0401
15588SOL    HW148205   5.513   4.580   6.098 -0.1135 -1.5585  0.2503
15588SOL    HW248206   5.659   4.581   6.058 -0.6257 -0.3119 -1.7550
15589SOL     OW48207   1.881   4.032   0.321 -0.1148  0.2198 -0.2266
15589SOL    HW148208   1.853   4.104   0.265  1.2636  0.4363 -0.6633
15589SOL    HW248209   1.801   3.982   0.338 -1.0338  1.6756 -0.1460
15590SOL     OW48210   0.719   6.305   6.053 -0.0842 -0.4136 -0.4017
15590SOL    HW148211   0.700   6.398   6.037 -0.0088 -0.6496 -1.9910
15590SOL    HW248212   0.657   6.280   6.121  1.4003  1.3429  1.7577
15591SOL     OW48213   5.375   5.245   3.633 -0.2771 -0.6297  0.3403
15591SOL    HW148214   5.398   5.328   3.591  3.3575 -1.6633 -0.0310
15591SOL    HW248215   5.289   5.261   3.672 -1.0478  2.3275 -2.1809
15592SOL     OW48216   0.642   1.141   0.483 -0.0043  0.4909  0.6325
15592SOL    HW148217   0.590   1.211   0.524 -0.2191  0.3294  0.6406
15592SOL    HW248218   0.583   1.103   0.418 -0.1791 -0.2258  1.1974
15593SOL     OW48219   6.119   6.030   7.882 -0.2817 -0.2160  0.3855
15593SOL    HW148220   6.103   6.124   7.887 -0.3741 -0.2221  0.1983
15593SOL    HW248221   6.203   6.022   7.838 -0.1987 -0.2159  0.5431
15594SOL     OW48222   0.471   7.627   1.490  0.4325 -0.4908  0.7849
15594SOL    HW148223   0.398   7.655   1.546 -1.1033  0.4466 -1.5187
15594SOL    HW248224   0.548   7.632   1.546 -0.4144  3.9128  1.9555
15595SOL     OW48225   5.969   7.539   3.251  0.3594 -0.0625  0.3918
15595SOL    HW148226   5.924   7.462   3.217  0.8262 -0.1240 -0.0934
15595SOL    HW248227   6.045   7.504   3.297  0.3346  0.0831  0.5445
15596SOL     OW48228   7.881   0.017  10.364 -0.2074  0.3267  0.5526
15596SOL    HW148229   7.945   0.062  10.420 -1.6382  0.9512  1.7636
15596SOL    HW248230   7.879  -0.073  10.398  0.5811  0.0932 -0.0012
15597SOL     OW48231   7.116   7.045   6.003  0.2999 -0.1825 -0.2689
15597SOL    HW148232   7.131   7.086   6.088 -1.4751  1.3056 -0.6089
15597SOL    HW248233   7.155   7.106   5.940  0.3131 -0.5422 -0.6143
15598SOL     OW48234   7.767   3.413   4.131  0.2543 -0.3405  0.0593
15598SOL    HW148235   7.858   3.385   4.141 -0.3599 -1.8850  2.1955
15598SOL    HW248236   7.756   3.426   4.037  3.1837  1.8894 -0.1433
15599SOL     OW48237   2.090   3.183  12.070 -0.1749 -0.0472  0.2038
15599SOL    HW148238   2.171   3.231  12.091 -0.8012  0.4135  1.6672
15599SOL    HW248239   2.065   3.140  12.152  0.0351 -2.4580 -0.9105
15600SOL     OW48240   7.447   0.063   0.893 -0.2568 -0.3597 -0.4828
15600SOL    HW148241   7.416   0.041   0.980  0.1751  1.2457  0.1145
15600SOL    HW248242   7.493  -0.016   0.863 -1.1071 -1.2142  0.3796
15601SOL     OW48243   3.234   3.714   1.387 -0.6528  0.2611 -0.2883
15601SOL    HW148244   3.171   3.784   1.405 -1.3698 -0.6970  1.0621
15601SOL    HW248245   3.186   3.633   1.406  0.6405 -0.5374 -0.3408
15602SOL     OW48246   5.109   6.432  11.519 -0.2814 -0.6231  0.3973
15602SOL    HW148247   5.086   6.457  11.430  0.5007 -0.4565  0.2337
15602SOL    HW248248   5.026   6.406  11.559 -1.0886  1.8764  0.4793
15603SOL     OW48249   7.814   1.459   4.453 -0.0828  0.3893  0.2501
15603SOL    HW148250   7.872   1.512   4.507  0.1994  0.2646  0.0695
15603SOL    HW248251   7.869   1.387   4.423 -0.6034 -0.3446  0.9857
15604SOL     OW48252   5.801   1.574   6.740  0.6394 -0.0742  0.9024
15604SOL    HW148253   5.796   1.570   6.644 -0.9900  0.0972  0.9443
15604SOL    HW248254   5.825   1.485   6.767  0.0403 -0.4118  0.3590
15605SOL     OW48255   1.170   1.232   1.125 -0.2701 -0.4438  0.0093
15605SOL    HW148256   1.259   1.262   1.104 -0.2068  0.3390  1.2159
15605SOL    HW248257   1.135   1.301   1.182 -1.8588 -0.4763 -0.8665
15606SOL     OW48258   6.261   5.768   9.093  0.2389 -0.2168 -0.1814
15606SOL    HW148259   6.254   5.771   9.189 -0.4663 -0.4512 -0.2165
15606SOL    HW248260   6.234   5.855   9.065  0.5843 -0.1027 -0.1608
15607SOL     OW48261   5.256   7.456  10.160 -0.4593 -0.0126  0.1985
15607SOL    HW148262   5.274   7.477  10.251  0.2524 -1.7881  0.4996
15607SOL    HW248263   5.166   7.423  10.159 -0.1767 -0.8059  0.4158
15608SOL     OW48264   6.271   3.436   4.182 -0.2332  0.7291 -0.0991
15608SOL    HW148265   6.187   3.481   4.179 -1.4058 -1.4412 -2.0116
15608SOL    HW248266   6.307   3.444   4.094  0.0846 -0.9876 -0.1636
15609SOL     OW48267   5.135   1.728  11.438 -0.0507 -0.1360 -0.1037
15609SOL    HW148268   5.140   1.790  11.365  0.7609  2.2308  1.8314
15609SOL    HW248269   5.217   1.680  11.435  0.1547  0.2378 -0.5124
15610SOL     OW48270   1.784   5.084   1.564 -0.0903 -1.0700 -0.1052
15610SOL    HW148271   1.700   5.104   1.523 -0.0350 -1.1205 -0.2453
15610SOL    HW248272   1.761   5.049   1.650 -0.1556  0.4324  0.5112
15611SOL     OW48273   7.322   0.002   1.103 -0.4435 -0.0428 -0.5817
15611SOL    HW148274   7.229  -0.011   1.121 -0.4864  2.2856  1.5119
15611SOL    HW248275   7.366  -0.027   1.184  0.2213  2.6563  0.1092
15612SOL     OW48276   6.746   4.225  11.226 -0.2934 -0.4950 -0.1444
15612SOL    HW148277   6.703   4.311  11.230 -1.0142 -0.8861  1.2208
15612SOL    HW248278   6.675   4.165  11.204 -0.0705 -0.9116  0.2706
15613SOL     OW48279   5.426   5.783  12.065  0.5319 -0.2767 -0.0717
15613SOL    HW148280   5.519   5.770  12.081  0.4143 -1.4065 -0.2264
15613SOL    HW248281   5.421   5.804  11.971  0.5653 -1.0009 -0.2390
15614SOL     OW48282   6.733   3.187   9.616 -0.0924  0.2756 -0.2890
15614SOL    HW148283   6.660   3.245   9.636 -0.5756 -0.7271  1.0262
15614SOL    HW248284   6.730   3.175   9.522 -1.0565  0.9816 -0.3578
15615SOL     OW48285   3.643   4.412  10.572  0.2151 -0.2820  0.1419
15615SOL    HW148286   3.571   4.462  10.533  1.5151 -0.3825 -2.6030
15615SOL    HW248287   3.632   4.323  10.537 -0.2394 -1.2370  2.4702
15616SOL     OW48288   6.740   5.083   5.775 -0.7963  0.0477  0.7430
15616SOL    HW148289   6.653   5.118   5.752 -0.1393 -0.2046 -2.5739
15616SOL    HW248290   6.742   4.997   5.735  1.8868  1.0957 -1.6849
15617SOL     OW48291   5.315   3.169   4.153 -0.5821 -0.1370  0.3093
15617SOL    HW148292   5.341   3.087   4.195 -0.1019  0.9333  2.2287
15617SOL    HW248293   5.397   3.207   4.121 -0.9667 -1.0432 -1.9202
15618SOL     OW48294   7.389   1.176   2.297  1.0342  0.2621  0.2897
15618SOL    HW148295   7.438   1.166   2.379  0.5367  0.9988  0.6828
15618SOL    HW248296   7.315   1.231   2.320  0.7281  0.2312 -0.5981
15619SOL     OW48297   1.353   5.283   6.401 -0.4325  0.6179 -0.2086
15619SOL    HW148298   1.274   5.318   6.360  0.1886  1.6521 -0.5546
15619SOL    HW248299   1.425   5.331   6.360  0.2996  0.6348  1.0371
15620SOL     OW48300   7.893   6.367   5.744  0.2600  0.0040 -0.4268
15620SOL    HW148301   7.893   6.450   5.792  1.5461 -0.7319  0.9619
15620SOL    HW248302   7.859   6.388   5.658 -0.5996  1.7280  0.2946
15621SOL     OW48303   2.586   6.323  12.246 -0.4552 -0.6779  0.2432
15621SOL    HW148304   2.653   6.379  12.285  0.7629 -1.3600 -0.7550
15621SOL    HW248305   2.507   6.340  12.296  0.4910  0.0973  1.5276
15622SOL     OW48306   7.542   3.462   6.101  0.1873  0.5970 -0.1297
15622SOL    HW148307   7.536   3.367   6.090  0.3044  0.7740 -2.2923
15622SOL    HW248308   7.550   3.475   6.195  0.4295 -1.5432  0.2043
15623SOL     OW48309   0.144   0.030   1.257 -0.2562 -1.0014  0.4400
15623SOL    HW148310   0.176   0.078   1.334  0.6756 -0.5448 -0.2261
15623SOL    HW248311   0.203   0.055   1.186 -0.2997 -2.4355 -0.1381
15624SOL     OW48312   6.848   3.543   3.725  0.2530  0.3005 -0.2068
15624SOL    HW148313   6.928   3.508   3.685  0.5691 -1.8592  2.0629
15624SOL    HW248314   6.790   3.467   3.732 -1.0105  1.2897  0.4975
15625SOL     OW48315   1.651   5.127   6.965  0.7394 -0.4046  0.0974
15625SOL    HW148316   1.715   5.087   7.024 -0.2515  0.6674  1.9913
15625SOL    HW248317   1.662   5.221   6.978  0.9156 -0.1071 -1.9501
15626SOL     OW48318   4.730   6.725   8.708 -0.0380 -0.2077 -0.5666
15626SOL    HW148319   4.775   6.748   8.627 -1.2130  3.7566 -0.2879
15626SOL    HW248320   4.637   6.720   8.683 -0.4386  1.2736  0.4950
15627SOL     OW48321   7.801   5.532   8.427  0.4884  0.2633  0.1146
15627SOL    HW148322   7.776   5.546   8.336  0.7579  2.3049  0.3058
15627SOL    HW248323   7.721   5.504   8.471  0.3355 -0.6257 -0.7244
15628SOL     OW48324   6.573   5.291   7.445 -0.6076 -0.1323 -0.3353
15628SOL    HW148325   6.576   5.321   7.536  1.7935  1.9247 -0.9857
15628SOL    HW248326   6.620   5.207   7.447  1.5477  1.0054  0.0397
15629SOL     OW48327   3.016   1.464  10.871 -0.2569 -0.1464  0.8556
15629SOL    HW148328   2.968   1.543  10.897 -0.0688  0.6403 -1.0627
15629SOL    HW248329   3.105   1.479  10.903 -0.8554 -0.9325  3.0708
15630SOL     OW48330   0.767   6.136   9.931  0.3244  0.2540  0.1314
15630SOL    HW148331   0.856   6.167   9.945  0.7786 -1.2472  0.6322
15630SOL    HW248332   0.768   6.101   9.842 -0.2205  1.6813 -0.4756
15631SOL     OW48333   2.006   0.413   2.215  0.2295  0.2614 -0.5745
15631SOL    HW148334   2.079   0.407   2.154  0.2958 -0.8266 -0.4013
15631SOL    HW248335   2.038   0.370   2.294 -0.0238  1.2383  0.0784
15632SOL     OW48336   4.750   2.226   4.206 -0.3198  0.4356  0.0474
15632SOL    HW148337   4.781   2.317   4.210 -0.0514  0.3498 -0.1254
15632SOL    HW248338   4.724   2.213   4.115  3.7393 -1.0177 -1.0985
15633SOL     OW48339   5.970   1.617   8.010  0.8664 -0.3526 -0.3165
15633SOL    HW148340   5.942   1.548   7.950  1.0650  1.2551 -2.3637
15633SOL    HW248341   5.902   1.619   8.078 -0.9480 -0.3865 -2.0304
15634SOL     OW48342   0.701   3.485   0.614 -0.2303  0.2181  0.3215
15634SOL    HW148343   0.783   3.476   0.567  0.2160 -0.1816  1.1449
15634SOL    HW248344   0.700   3.412   0.676 -1.0868  0.3606  0.4956
15635SOL     OW48345   6.337   7.281   2.487 -0.1911 -0.0802  0.0177
15635SOL    HW148346   6.370   7.239   2.408  1.0576  0.2456  0.3333
15635SOL    HW248347   6.409   7.337   2.516  0.1754 -1.6237  2.4308
15636SOL     OW48348   2.397   1.364   5.044 -0.4843  0.0591 -0.2589
15636SOL    HW148349   2.432   1.453   5.056  1.7755 -0.5752 -1.5313
15636SOL    HW248350   2.302   1.376   5.043 -0.3194  2.1898  1.4760
15637SOL     OW48351   2.785   2.084  11.739  0.1605  0.4655  0.2753
15637SOL    HW148352   2.708   2.097  11.685  0.4185  1.7030  0.1777
15637SOL    HW248353   2.757   2.023  11.808 -0.9014  0.9228  0.2498
15638SOL     OW48354   5.745   7.042   6.723 -0.1871 -0.0388 -0.4446
15638SOL    HW148355   5.727   7.018   6.814  2.4961 -0.4138  0.0653
15638SOL    HW248356   5.685   6.987   6.672 -1.8403  0.2774  1.0584
15639SOL     OW48357   2.706   2.815  11.433 -0.3427  0.1433  0.1702
15639SOL    HW148358   2.774   2.870  11.470 -0.8322  0.4261  0.6690
15639SOL    HW248359   2.636   2.816  11.499 -0.7119 -0.3644 -0.2054
15640SOL     OW48360   6.428   0.573   0.229  0.7253 -0.1543  0.1406
15640SOL    HW148361   6.384   0.655   0.250  0.3023  0.7829 -3.6855
15640SOL    HW248362   6.521   0.595   0.232  0.7903 -0.4484  2.0143
15641SOL     OW48363   5.916   0.006   9.426 -0.8980 -0.2750 -0.0833
15641SOL    HW148364   5.996   0.036   9.385  0.2396  0.0418  2.2030
15641SOL    HW248365   5.852   0.075   9.408  0.0236  0.6415  0.0568
15642SOL     OW48366   3.792   0.639   7.284 -0.2791  0.7297  0.0695
15642SOL    HW148367   3.781   0.566   7.222 -0.9936  0.9628 -0.0903
15642SOL    HW248368   3.865   0.689   7.249 -1.8999  1.9631 -1.7201
15643SOL     OW48369   2.571   0.885   2.389 -0.0633  0.1579  0.3116
15643SOL    HW148370   2.598   0.862   2.479 -0.3934 -1.0125  0.1358
15643SOL    HW248371   2.616   0.820   2.334  0.5288  1.1686 -0.4276
15644SOL     OW48372   2.041   5.313   6.000  0.9001 -0.2739 -0.3614
15644SOL    HW148373   2.080   5.246   6.056  2.4143  1.5509  0.8742
15644SOL    HW248374   2.109   5.379   5.990 -0.8594  1.6157 -0.6282
15645SOL     OW48375   6.951   0.651   6.015  0.5237 -0.1501 -0.5474
15645SOL    HW148376   6.888   0.718   6.041 -0.3291 -1.1059 -0.0787
15645SOL    HW248377   7.037   0.693   6.022 -0.0892  1.4146 -1.9410
15646SOL     OW48378   1.778   7.227   4.214 -0.0220  0.0131  0.4206
15646SOL    HW148379   1.836   7.270   4.151 -0.8963  0.7562  0.1074
15646SOL    HW248380   1.695   7.275   4.208 -1.8016 -2.9369 -1.5063
15647SOL     OW48381   5.299   7.176   3.510  0.1821 -0.1275 -0.0288
15647SOL    HW148382   5.220   7.154   3.461  0.8729 -0.6922 -0.8933
15647SOL    HW248383   5.371   7.155   3.452  0.9872  0.3186  0.7796
15648SOL     OW48384   0.994   4.054   2.590  0.0805  0.1684  0.4802
15648SOL    HW148385   0.955   4.095   2.667  0.7261  3.2449 -0.6809
15648SOL    HW248386   0.948   4.093   2.516  0.5113 -1.5662 -0.7774
15649SOL     OW48387   5.018   5.734   3.387  0.4151  0.2554 -0.0829
15649SOL    HW148388   4.967   5.808   3.354  1.6322  0.5487 -1.4443
15649SOL    HW248389   5.071   5.771   3.458  0.9383  0.6901 -0.6861
15650SOL     OW48390   0.864   6.495   4.602  0.2346  0.3918  0.1423
15650SOL    HW148391   0.950   6.509   4.641  0.4524  1.8059 -0.7882
15650SOL    HW248392   0.881   6.479   4.510 -0.4622  0.0325  0.0699
15651SOL     OW48393   6.474   6.813   5.608 -0.2864 -0.6573 -0.0846
15651SOL    HW148394   6.425   6.849   5.682 -1.5273  0.9217 -1.5859
15651SOL    HW248395   6.543   6.877   5.591 -1.5607  0.3559 -1.8107
15652SOL     OW48396   7.466   5.339  10.434 -0.1558 -0.0717 -0.5877
15652SOL    HW148397   7.495   5.330  10.525 -3.1527  1.4325  0.6462
15652SOL    HW248398   7.544   5.370  10.387  0.5699  3.0387  2.2704
15653SOL     OW48399   2.815   7.341   6.284  0.0016 -0.1579 -0.3226
15653SOL    HW148400   2.886   7.312   6.227 -0.7043 -0.2023 -1.2168
15653SOL    HW248401   2.755   7.388   6.226 -0.4380  0.3395  0.5088
15654SOL     OW48402   0.515   1.403   3.356 -0.6136 -0.9116 -0.6506
15654SOL    HW148403   0.471   1.484   3.378  1.3193  0.2482 -0.8085
15654SOL    HW248404   0.449   1.352   3.309 -2.5753 -0.4517  1.4544
15655SOL     OW48405   2.843   0.858   6.911  0.0064  0.8068  0.6643
15655SOL    HW148406   2.763   0.842   6.861 -0.3930 -1.0975  1.7897
15655SOL    HW248407   2.817   0.919   6.980 -0.0481  1.4848  0.0547
15656SOL     OW48408   2.048   2.490   7.236 -0.2842 -0.5486 -0.0948
15656SOL    HW148409   2.056   2.472   7.142  0.1007  2.4784 -0.7528
15656SOL    HW248410   2.118   2.439   7.277  0.0440 -1.3113 -1.5462
15657SOL     OW48411   2.355   3.351  10.562  0.4624 -0.2302 -0.2884
15657SOL    HW148412   2.278   3.296  10.575  0.7634 -1.1934 -2.1502
15657SOL    HW248413   2.326   3.418  10.500  1.1079 -0.6460 -1.0676
15658SOL     OW48414   3.128   1.400   7.689  0.0776 -0.4460  0.6825
15658SOL    HW148415   3.079   1.332   7.642 -1.2347  1.6140 -1.1355
15658SOL    HW248416   3.219   1.383   7.667 -0.2970 -1.0675 -0.4966
15659SOL     OW48417   6.167   5.315   7.643 -0.0254  0.5898  0.5474
15659SOL    HW148418   6.152   5.334   7.736  2.7292  0.4871  1.0963
15659SOL    HW248419   6.217   5.390   7.611  1.0456 -0.4172 -0.2300
15660SOL     OW48420   3.430   4.686   2.154  0.6451 -0.2161 -0.3745
15660SOL    HW148421   3.477   4.638   2.085 -0.4626  0.9400 -2.0089
15660SOL    HW248422   3.364   4.624   2.185  2.0617 -1.2478  0.7195
15661SOL     OW48423   2.967   7.086  11.097  0.9553 -0.1357 -0.9757
15661SOL    HW148424   3.053   7.121  11.119  1.3797 -0.9791 -1.2695
15661SOL    HW248425   2.932   7.053  11.180  0.2328  1.6203 -0.5428
15662SOL     OW48426   0.101   0.157   5.866 -0.3044  0.3149 -0.1803
15662SOL    HW148427   0.132   0.084   5.918 -0.1961  1.1153  0.9146
15662SOL    HW248428   0.008   0.142   5.856 -0.1422 -0.4033 -0.6945
15663SOL     OW48429   6.141   0.068   9.279  0.0881 -0.2086 -0.7405
15663SOL    HW148430   6.223   0.079   9.328 -0.7184 -1.4873  1.0107
15663SOL    HW248431   6.153  -0.013   9.230 -0.6650 -1.3360  0.8305
15664SOL     OW48432   5.594   7.202   4.305  0.2223 -0.5425  0.1273
15664SOL    HW148433   5.650   7.216   4.229 -0.0752  2.7012  0.3755
15664SOL    HW248434   5.656   7.193   4.378  0.4535 -0.8441 -0.1001
15665SOL     OW48435   4.922   3.424   1.079 -0.3339  0.4005 -0.2540
15665SOL    HW148436   4.827   3.436   1.075 -0.7266 -2.0690 -4.5422
15665SOL    HW248437   4.934   3.330   1.092  1.5751  0.7405  0.7255
15666SOL     OW48438   0.858   1.940   3.957 -0.3420 -0.0201 -0.2600
15666SOL    HW148439   0.848   2.024   4.001  0.9020 -0.5869  1.1644
15666SOL    HW248440   0.791   1.884   3.997  0.1988 -0.2819  0.2919
15667SOL     OW48441   3.340   7.526   1.984  0.1730  0.1738 -0.1849
15667SOL    HW148442   3.260   7.573   2.008  0.3240  1.2171 -1.5775
15667SOL    HW248443   3.313   7.435   1.976 -0.5386  0.2817  0.8057
15668SOL     OW48444   2.400   6.574   1.016 -0.0554  0.1477 -0.4831
15668SOL    HW148445   2.416   6.480   1.028 -1.4402 -0.2390 -1.4346
15668SOL    HW248446   2.480   6.606   0.972  0.2608 -0.6640 -0.5150
15669SOL     OW48447   6.851   0.326   1.530 -0.3127  0.6724  0.2165
15669SOL    HW148448   6.918   0.391   1.510 -0.2277  0.5726  0.1816
15669SOL    HW248449   6.893   0.264   1.589 -0.7589  1.3456  1.2949
15670SOL     OW48450   6.057   0.406   8.062  0.1776 -0.1437  0.4963
15670SOL    HW148451   5.976   0.450   8.088 -0.2570 -1.7474  2.0590
15670SOL    HW248452   6.093   0.373   8.144  3.2581  1.7887  0.0828
15671SOL     OW48453   4.850   7.014   7.104  0.0749  0.4165 -0.3138
15671SOL    HW148454   4.879   7.085   7.048  0.2064  0.8221  0.2642
15671SOL    HW248455   4.897   6.937   7.071  0.4214  0.7190 -0.5319
15672SOL     OW48456   2.209   2.014   3.688 -0.1051 -0.0947 -0.6236
15672SOL    HW148457   2.253   1.988   3.768  0.8316  0.2845 -1.0034
15672SOL    HW248458   2.151   2.086   3.714  1.1651  0.9085 -0.5197
15673SOL     OW48459   4.145   0.895   8.469  0.4828 -0.0606  0.5095
15673SOL    HW148460   4.062   0.847   8.463  0.2789  0.2709  0.6183
15673SOL    HW248461   4.139   0.942   8.553  0.2691  0.8911 -0.0217
15674SOL     OW48462   4.277   2.027   6.239 -0.3246  0.4152  0.4030
15674SOL    HW148463   4.251   1.946   6.195  2.2044 -0.6352  0.6563
15674SOL    HW248464   4.263   2.096   6.174 -1.3566 -0.3670 -0.2391
15675SOL     OW48465   5.019   6.168   4.748 -0.5612  0.1285 -0.1753
15675SOL    HW148466   5.095   6.192   4.802 -0.7139  0.6979 -0.2071
15675SOL    HW248467   5.020   6.232   4.676  0.2951 -1.2981 -1.4844
15676SOL     OW48468   6.029   0.255   9.120 -0.5014 -0.0818  0.6506
15676SOL    HW148469   5.942   0.217   9.108 -0.9748  1.4035 -1.2190
15676SOL    HW248470   6.077   0.191   9.172 -1.7711 -2.3408 -0.8204
15677SOL     OW48471   6.256   2.903   7.086  0.5325  0.2001  0.5319
15677SOL    HW148472   6.343   2.866   7.098 -1.0449 -3.8865  1.0236
15677SOL    HW248473   6.235   2.888   6.994 -1.4666 -3.9893  1.4335
15678SOL     OW48474   0.141   5.060   8.705 -0.1429 -0.6449 -0.2371
15678SOL    HW148475   0.053   5.028   8.684 -0.4357 -1.1573  1.6102
15678SOL    HW248476   0.182   4.989   8.753  1.0705 -0.1537 -0.5129
15679SOL     OW48477   2.045   0.367   4.216  0.3273  0.4686 -0.0142
15679SOL    HW148478   2.091   0.356   4.300 -0.3387  0.7753  0.3983
15679SOL    HW248479   2.089   0.306   4.157  0.4896 -0.1216  0.6943
15680SOL     OW48480   1.187   1.176  10.641  0.0469  0.1184 -0.1822
15680SOL    HW148481   1.148   1.094  10.671  1.0043 -1.1904 -2.3215
15680SOL    HW248482   1.112   1.227  10.609 -0.4615 -0.2950  0.3286
15681SOL     OW48483   2.089   5.177   7.842  0.5070 -0.2759 -0.1031
15681SOL    HW148484   2.134   5.141   7.765  1.8616 -2.0793  1.4433
15681SOL    HW248485   2.159   5.205   7.900 -0.5148  1.8466  0.1811
15682SOL     OW48486   7.060   3.266   3.430  0.0967  0.5334 -0.3093
15682SOL    HW148487   7.065   3.186   3.482  2.5224  0.3764 -0.6947
15682SOL    HW248488   7.063   3.337   3.494  0.2345  0.3404 -0.1027
15683SOL     OW48489   7.053   5.139   3.796 -0.1980 -0.3069  0.2675
15683SOL    HW148490   7.105   5.138   3.716  1.4866  0.1492  1.2720
15683SOL    HW248491   7.034   5.231   3.811 -2.2771 -0.5560 -0.6414
15684SOL     OW48492   6.626   7.087   0.884  0.1931 -0.2179 -0.3812
15684SOL    HW148493   6.579   7.012   0.920  0.3019 -1.1086 -1.9978
15684SOL    HW248494   6.704   7.049   0.843  1.5833  1.0740  0.9318
15685SOL     OW48495   0.218   1.446   9.144 -0.1411 -0.4300 -0.2288
15685SOL    HW148496   0.308   1.423   9.122 -0.4554 -0.6824 -1.3050
15685SOL    HW248497   0.165   1.379   9.102 -0.8635  0.0854 -0.1642
15686SOL     OW48498   4.382   3.121   5.483  0.1257  0.5008  0.3063
15686SOL    HW148499   4.389   3.146   5.391 -0.6242  0.4252  0.2227
15686SOL    HW248500   4.365   3.026   5.481 -0.0722  0.5311  0.5150
15687SOL     OW48501   0.401   4.144   9.390 -0.4358  0.3347  0.1535
15687SOL    HW148502   0.350   4.156   9.311 -0.7083  0.1370  0.2993
15687SOL    HW248503   0.355   4.076   9.439  0.8514 -1.0327 -0.4591
15688SOL     OW48504   0.435   3.017   6.018  0.3472 -0.3610  0.0956
15688SOL    HW148505   0.501   3.086   6.026 -0.2013  0.2647 -0.5968
15688SOL    HW248506   0.425   2.983   6.107  1.6957 -0.5800  0.1988
15689SOL     OW48507   4.977   0.917   6.384  0.2891 -0.2742  0.0092
15689SOL    HW148508   5.019   0.837   6.353  1.3186  0.6674 -1.1318
15689SOL    HW248509   4.890   0.916   6.343  1.0238  0.1401 -1.6538
15690SOL     OW48510   5.977   6.951   0.536 -0.1365  0.3744 -0.2237
15690SOL    HW148511   6.050   6.930   0.478  0.9999  1.1752  0.8448
15690SOL    HW248512   6.001   7.035   0.575 -0.9327 -0.0478  1.2607
15691SOL     OW48513   6.197   0.025   5.618 -0.5031 -0.1920 -0.6515
15691SOL    HW148514   6.270   0.078   5.586  0.3888 -1.3879 -0.6660
15691SOL    HW248515   6.123   0.051   5.564 -0.0476  0.8988 -0.7742
15692SOL     OW48516   2.719   4.486   6.557  0.3113  0.2830 -0.7707
15692SOL    HW148517   2.646   4.508   6.615  1.6883 -0.4810  1.3973
15692SOL    HW248518   2.682   4.489   6.469 -1.9779  1.2201  0.1417
15693SOL     OW48519   7.175   2.423   4.341 -0.2588 -0.8554 -0.4716
15693SOL    HW148520   7.248   2.481   4.322  1.3655 -2.2689  1.0237
15693SOL    HW248521   7.191   2.345   4.288  0.6708 -2.1056  1.5115
15694SOL     OW48522   2.177   5.877   0.454  0.4080 -0.3642  0.3997
15694SOL    HW148523   2.250   5.817   0.437  0.5254 -0.0130 -0.3857
15694SOL    HW248524   2.156   5.914   0.369  1.7786  2.3567  1.1018
15695SOL     OW48525   2.178   4.099   9.990  0.0132  0.1636 -0.1498
15695SOL    HW148526   2.191   4.153   9.911 -0.2751 -1.4603 -1.3527
15695SOL    HW248527   2.181   4.009   9.958 -0.1261 -0.5414  1.7180
15696SOL     OW48528   1.435   5.299   0.483  0.6198 -0.2238 -0.6030
15696SOL    HW148529   1.350   5.340   0.464  0.6762  0.6712  0.9184
15696SOL    HW248530   1.498   5.349   0.430  0.5340  0.9742  0.3757
15697SOL     OW48531   4.627   2.176   8.474 -1.0957  0.0043  0.2318
15697SOL    HW148532   4.628   2.243   8.542 -1.4996 -0.3526  0.5894
15697SOL    HW248533   4.544   2.130   8.486 -0.7266 -0.7054  0.1321
15698SOL     OW48534   6.808   7.411   6.852 -0.1095 -0.2545  0.9781
15698SOL    HW148535   6.819   7.498   6.814  0.0242 -0.4806  0.4887
15698SOL    HW248536   6.777   7.427   6.941  1.2757  0.3392  1.3861
15699SOL     OW48537   1.995   5.727   1.936 -0.0846 -1.0135  0.1508
15699SOL    HW148538   1.961   5.669   2.004  1.2857 -0.1302  1.6374
15699SOL    HW248539   2.090   5.715   1.938  0.0055 -0.9234 -1.5916
15700SOL     OW48540   5.340   0.155   5.591 -0.2264 -0.4910  0.4077
15700SOL    HW148541   5.399   0.220   5.553  0.8618 -2.0477 -0.6829
15700SOL    HW248542   5.382   0.129   5.673  0.2844 -1.0895 -0.0300
15701SOL     OW48543   3.099   1.337   5.127 -0.3081  0.4817 -0.2012
15701SOL    HW148544   3.023   1.393   5.113 -1.5309 -1.4340 -1.9085
15701SOL    HW248545   3.149   1.380   5.196 -1.7896  2.9612 -0.5542
15702SOL     OW48546   0.726   3.761   9.710 -0.1384 -0.5863 -0.1980
15702SOL    HW148547   0.713   3.676   9.752 -2.1369  0.1474  0.8025
15702SOL    HW248548   0.779   3.811   9.772  0.4596 -0.8602 -0.4799
15703SOL     OW48549   6.163   6.788   5.286 -0.1445 -0.0707  0.0019
15703SOL    HW148550   6.249   6.747   5.296 -1.2363 -2.5170  0.2957
15703SOL    HW248551   6.114   6.758   5.362 -1.1867  1.4829 -0.0290
15704SOL     OW48552   0.471   1.458   0.040  0.2314  0.1256 -0.3385
15704SOL    HW148553   0.448   1.400  -0.032  0.2809  0.4531 -0.6195
15704SOL    HW248554   0.428   1.541   0.020 -0.5924 -0.0785  0.5238
15705SOL     OW48555   7.783   6.848   6.341 -0.2690 -0.4465  0.1414
15705SOL    HW148556   7.693   6.825   6.364 -0.5612 -0.5019 -0.9784
15705SOL    HW248557   7.824   6.870   6.424 -0.8780 -1.9253  0.8661
15706SOL     OW48558   2.022   5.106  10.111 -0.1834 -0.3732  0.5587
15706SOL    HW148559   1.998   5.143  10.196  2.2889  0.0939  1.1152
15706SOL    HW248560   2.005   5.176  10.048  2.7859  1.2594  1.3856
15707SOL     OW48561   1.125   6.496   9.779  0.2224 -0.3619 -0.2397
15707SOL    HW148562   1.186   6.568   9.762  2.0372 -1.5341  0.9137
15707SOL    HW248563   1.107   6.459   9.693 -0.8894  1.5050 -0.8800
15708SOL     OW48564   1.302   1.015   2.168 -1.0053 -0.4768  0.1661
15708SOL    HW148565   1.213   1.044   2.187 -0.3278  1.8289  0.0850
15708SOL    HW248566   1.354   1.052   2.239  0.0875 -0.4982 -0.6046
15709SOL     OW48567   4.248   5.304   3.465 -0.1403  0.2019 -0.1431
15709SOL    HW148568   4.215   5.272   3.549  0.3482 -0.5020 -0.2074
15709SOL    HW248569   4.223   5.236   3.402  0.4021  0.2180 -0.3849
15710SOL     OW48570   4.926   1.571   2.818  0.0792 -0.3394  0.3648
15710SOL    HW148571   4.888   1.559   2.905  1.2840 -0.5713  0.8829
15710SOL    HW248572   4.996   1.506   2.814  2.2317  1.8498  0.5159
15711SOL     OW48573   7.740   4.199   2.696  0.0685 -0.3157 -0.4445
15711SOL    HW148574   7.821   4.216   2.648  0.0886 -1.0888 -0.7055
15711SOL    HW248575   7.726   4.278   2.748 -0.4579  0.9717 -2.4006
15712SOL     OW48576   6.911   7.287   3.444  0.0442  1.3197  0.0310
15712SOL    HW148577   6.822   7.302   3.475 -0.7049 -0.6434 -0.9564
15712SOL    HW248578   6.951   7.232   3.511 -0.8120 -0.9855 -1.2383
15713SOL     OW48579   1.706   7.579   6.357 -0.1012 -0.6357  0.3244
15713SOL    HW148580   1.767   7.610   6.424 -0.4712 -0.2567  0.4911
15713SOL    HW248581   1.620   7.591   6.397 -0.3114 -0.6247 -0.1329
15714SOL     OW48582   5.311   2.193   5.276 -0.6155  0.3495  0.1075
15714SOL    HW148583   5.334   2.130   5.345 -1.5481  0.6522  0.6981
15714SOL    HW248584   5.386   2.253   5.274  0.4554 -0.9358 -0.6941
15715SOL     OW48585   5.731   5.073   1.680 -0.5217 -0.3999  0.5564
15715SOL    HW148586   5.732   4.998   1.621 -0.6914 -0.4213  0.5809
15715SOL    HW248587   5.655   5.125   1.653 -0.7633 -0.5537  0.9333
15716SOL     OW48588   6.909   4.253  11.453  0.2517  0.4505 -0.6432
15716SOL    HW148589   6.870   4.207  11.527  0.5399  0.9309 -0.1883
15716SOL    HW248590   6.844   4.245  11.383 -1.2577  2.3167  0.4735
15717SOL     OW48591   2.774   1.625   6.783 -0.0403 -0.5020  0.2167
15717SOL    HW148592   2.848   1.577   6.820  0.7041  0.1232 -0.4157
15717SOL    HW248593   2.808   1.659   6.700 -0.8833  0.2257  0.1652
15718SOL     OW48594   6.232   5.426   2.973  0.5868  0.1016  0.1749
15718SOL    HW148595   6.178   5.486   3.023 -1.0752 -1.3770  0.2590
15718SOL    HW248596   6.321   5.462   2.979 -0.3093  2.4217  0.3172
15719SOL     OW48597   3.662   4.625  11.305  0.1213 -0.0305  0.3837
15719SOL    HW148598   3.606   4.550  11.327 -0.7823  0.6459  0.4391
15719SOL    HW248599   3.746   4.586  11.282 -0.4457 -1.0996  0.0324
15720SOL     OW48600   5.488   7.089   3.847 -0.3061 -0.5194  0.0333
15720SOL    HW148601   5.418   7.137   3.802  0.1930 -1.4143 -1.8134
15720SOL    HW248602   5.537   7.047   3.776  1.1877 -1.1489  1.3848
15721SOL     OW48603   5.881   4.034  12.092  0.3765  0.3235 -0.0538
15721SOL    HW148604   5.859   4.107  12.033  1.5605  0.3067 -0.5331
15721SOL    HW248605   5.940   3.979  12.041  0.5393 -0.2818  0.7790
15722SOL     OW48606   0.209   0.549   6.892  0.2428 -0.5638  0.7118
15722SOL    HW148607   0.163   0.509   6.817  0.0132 -0.9118  1.0378
15722SOL    HW248608   0.162   0.631   6.907  1.7437  0.7039 -1.0354
15723SOL     OW48609   6.898   2.751   2.075  0.0127 -0.2455  0.0961
15723SOL    HW148610   6.823   2.706   2.036  0.1852  0.7215 -1.4452
15723SOL    HW248611   6.863   2.835   2.105  0.0767 -0.6137  1.2547
15724SOL     OW48612   1.586   2.886   8.076 -0.8409 -0.3990  0.6535
15724SOL    HW148613   1.548   2.890   7.989 -1.7441  1.5695  1.0914
15724SOL    HW248614   1.659   2.948   8.074 -1.3040  0.1892  1.4830
15725SOL     OW48615   3.964   7.673  10.377  0.2646 -0.4166 -0.0217
15725SOL    HW148616   4.011   7.594  10.407  0.7036 -0.1828 -0.0867
15725SOL    HW248617   3.890   7.681  10.437  0.0363 -1.0591 -0.2080
15726SOL     OW48618   5.257   2.012   9.943  0.4026 -0.3534  0.0795
15726SOL    HW148619   5.297   1.991  10.028  1.8186  1.9020  0.0590
15726SOL    HW248620   5.163   2.007   9.960  0.6230  0.8154  2.0602
15727SOL     OW48621   1.253   3.619   9.335 -0.2182  0.1104 -0.5231
15727SOL    HW148622   1.316   3.610   9.263  0.0357  1.6021 -0.5232
15727SOL    HW248623   1.171   3.584   9.299  0.0805  0.1687 -1.2939
15728SOL     OW48624   6.204   5.323   2.734  1.1398  0.3460 -0.8302
15728SOL    HW148625   6.222   5.364   2.819 -0.0586  3.3789 -1.8929
15728SOL    HW248626   6.111   5.302   2.738  1.3362 -0.6014 -1.0123
15729SOL     OW48627   7.964   5.012  11.634  0.3960  0.5993 -0.8892
15729SOL    HW148628   7.904   4.992  11.706  2.9195 -1.2914  0.8789
15729SOL    HW248629   7.922   5.084  11.588 -3.0080 -0.3154  0.3981
15730SOL     OW48630   3.985   7.892   6.480  0.5259 -0.1033  0.2950
15730SOL    HW148631   3.918   7.946   6.522  1.5137  0.1980  1.5253
15730SOL    HW248632   3.937   7.815   6.448 -0.8366  1.2585 -1.1492
15731SOL     OW48633   1.584   5.167   9.177  0.4692 -0.2401 -0.0493
15731SOL    HW148634   1.498   5.142   9.212 -0.5700  1.1585 -1.4659
15731SOL    HW248635   1.592   5.116   9.096  0.4727  0.4316 -0.4772
15732SOL     OW48636   3.249   0.885   9.116 -0.2866  0.0565 -0.3316
15732SOL    HW148637   3.321   0.943   9.141 -0.9993  0.4674  0.8474
15732SOL    HW248638   3.289   0.821   9.057  1.3971 -0.6655  1.4785
15733SOL     OW48639   1.008   0.465  11.555  0.4164 -0.3165  0.0935
15733SOL    HW148640   1.054   0.481  11.638 -2.0117 -0.6171  1.6121
15733SOL    HW248641   1.013   0.371  11.542  1.3995 -0.1919 -0.5090
15734SOL     OW48642   3.904   1.373   8.301  0.3172  0.0108  0.2467
15734SOL    HW148643   3.959   1.451   8.287  1.4760 -0.5911  1.2404
15734SOL    HW248644   3.863   1.357   8.216  1.5109  0.6331 -0.4791
15735SOL     OW48645   1.345   5.896   3.849 -0.1969 -0.3094 -0.2014
15735SOL    HW148646   1.400   5.872   3.924  2.5249  0.8584 -1.6964
15735SOL    HW248647   1.291   5.818   3.833  0.2742 -1.1509  1.9380
15736SOL     OW48648   7.901   3.827   4.312  0.3100  0.5789 -0.4117
15736SOL    HW148649   7.816   3.847   4.273  0.0984  1.2975  0.3784
15736SOL    HW248650   7.915   3.734   4.295 -0.8157  0.3621 -0.2072
15737SOL     OW48651   5.664   4.604   5.290 -0.6370  0.8006 -0.2327
15737SOL    HW148652   5.592   4.542   5.288 -0.3257  0.3868  0.7435
15737SOL    HW248653   5.623   4.687   5.314 -0.9480  0.8246 -0.8281
15738SOL     OW48654   7.027   3.935   5.516 -0.1158 -0.6817  0.0440
15738SOL    HW148655   7.092   3.966   5.453 -1.0198  1.4823  0.0794
15738SOL    HW248656   7.028   4.000   5.586 -2.0742 -0.7407  0.1911
15739SOL     OW48657   2.231   1.159   4.406  0.6090  0.5355 -0.2054
15739SOL    HW148658   2.215   1.111   4.487  0.3849  0.3308 -0.3695
15739SOL    HW248659   2.318   1.130   4.378 -0.1911 -1.0634 -1.1842
15740SOL     OW48660   2.243   4.590   0.810 -0.3177 -0.1500  0.3483
15740SOL    HW148661   2.200   4.591   0.896 -2.6036  0.0941 -0.7276
15740SOL    HW248662   2.333   4.616   0.828 -0.4785 -1.0063  2.7843
15741SOL     OW48663   6.476   3.838   2.323 -0.1538  0.2632  0.1811
15741SOL    HW148664   6.543   3.788   2.369  0.3371  0.9015  0.1819
15741SOL    HW248665   6.467   3.795   2.238  0.4236  0.3078  0.0930
15742SOL     OW48666   0.400   1.345   4.838 -0.3278  0.0762  0.4652
15742SOL    HW148667   0.475   1.369   4.892  0.7349 -1.4422 -0.2642
15742SOL    HW248668   0.362   1.269   4.881 -0.2722 -0.3263 -0.1745
15743SOL     OW48669   0.065   4.895   3.201  0.8451 -0.5185 -0.2575
15743SOL    HW148670   0.065   4.874   3.294  1.4456 -0.7282 -0.3001
15743SOL    HW248671   0.158   4.896   3.176  0.7731  0.7594 -0.5804
15744SOL     OW48672   2.350   0.639   0.170 -0.3126  0.1258 -0.2608
15744SOL    HW148673   2.401   0.688   0.235  1.7634  0.4905 -2.0804
15744SOL    HW248674   2.333   0.703   0.100  1.1788 -1.3014 -2.0058
15745SOL     OW48675   6.056   7.627   8.988 -0.0470  0.0994 -0.6761
15745SOL    HW148676   5.993   7.645   8.918 -0.8913  0.2622  0.1117
15745SOL    HW248677   6.010   7.568   9.048  0.6725 -0.0639 -0.2620
15746SOL     OW48678   2.958   7.180   8.325  0.3389  0.2229 -0.5290
15746SOL    HW148679   2.924   7.183   8.236 -1.4146 -0.9545  0.0537
15746SOL    HW248680   2.922   7.257   8.368 -0.4153 -0.2303 -0.3279
15747SOL     OW48681   0.915   2.807   8.436 -0.3931 -0.5440  0.3407
15747SOL    HW148682   1.010   2.802   8.448 -0.1219  3.2296  1.2921
15747SOL    HW248683   0.892   2.726   8.393  2.9733 -2.4921  1.7763
15748SOL     OW48684   1.952   6.850   1.607  0.4182  0.1915 -0.2458
15748SOL    HW148685   1.932   6.933   1.565 -2.0061 -0.1881  0.0070
15748SOL    HW248686   2.027   6.816   1.558  0.3628  1.7093 -1.4700
15749SOL     OW48687   7.908   1.175   9.513  0.4660  0.1795 -0.1042
15749SOL    HW148688   7.880   1.115   9.445  0.9162  0.2993 -0.3963
15749SOL    HW248689   7.837   1.172   9.578 -0.7116  1.2184 -1.2889
15750SOL     OW48690   0.081   6.087  12.437 -0.6172 -0.4482 -0.1335
15750SOL    HW148691   0.094   5.992  12.447  2.3000 -0.0391  0.9169
15750SOL    HW248692   0.138   6.112  12.364 -0.7419  0.6038  0.1127
15751SOL     OW48693   1.992   6.105  11.382 -0.5940 -0.0066 -0.1373
15751SOL    HW148694   1.898   6.115  11.394 -0.5879  0.0606 -0.1443
15751SOL    HW248695   2.031   6.144  11.460 -0.5060  1.7637 -1.0205
15752SOL     OW48696   2.805   5.379   2.856  0.5872  0.6602  0.2845
15752SOL    HW148697   2.796   5.375   2.952 -1.0246  0.5759  0.1589
15752SOL    HW248698   2.810   5.288   2.828 -2.0807  0.4990  0.0864
15753SOL     OW48699   7.588   0.914   4.530  0.6026  0.0919 -0.6725
15753SOL    HW148700   7.548   0.834   4.496 -1.1440  1.1036 -1.1128
15753SOL    HW248701   7.537   0.985   4.491  0.5711  1.3826  1.5364
15754SOL     OW48702   2.377   2.326   8.911 -0.6200  0.1040 -0.3009
15754SOL    HW148703   2.378   2.326   9.006 -2.0665  0.4149 -0.2669
15754SOL    HW248704   2.429   2.402   8.886 -1.2586  0.7478  0.2788
15755SOL     OW48705   5.322   1.589   4.586 -0.8167 -0.2538  0.1616
15755SOL    HW148706   5.316   1.642   4.507  2.6448  0.7009  0.3824
15755SOL    HW248707   5.397   1.532   4.571 -2.3804 -2.7768  1.3130
15756SOL     OW48708   2.313   7.209   1.327 -0.2559  0.0559 -0.2741
15756SOL    HW148709   2.384   7.191   1.265  0.1518 -0.9643  0.4610
15756SOL    HW248710   2.356   7.213   1.412 -0.8659  1.0604  0.0092
15757SOL     OW48711   0.112   0.500   1.050  0.6166 -0.4409 -0.5781
15757SOL    HW148712   0.197   0.488   1.094  0.6654  0.9185 -0.2625
15757SOL    HW248713   0.105   0.594   1.038 -0.1844 -0.6636 -1.9692
15758SOL     OW48714   4.507   0.989  10.869 -0.3423 -0.4086 -0.2249
15758SOL    HW148715   4.523   0.908  10.918 -0.6401 -0.2616  0.1196
15758SOL    HW248716   4.594   1.017  10.839 -0.1295 -0.3962  0.3883
15759SOL     OW48717   3.347   2.189   0.162  0.3189 -0.0151 -0.0045
15759SOL    HW148718   3.324   2.199   0.070  1.4030  0.4555 -0.2476
15759SOL    HW248719   3.267   2.209   0.210  0.0609  0.9734 -0.8137
15760SOL     OW48720   6.850   3.775   8.466  0.0060 -0.3219 -0.6246
15760SOL    HW148721   6.797   3.732   8.398 -0.4554 -1.5351  0.4572
15760SOL    HW248722   6.789   3.787   8.539  0.5470  0.7792 -0.3346
15761SOL     OW48723   5.441   5.817   4.809 -0.5687  0.1442  0.3682
15761SOL    HW148724   5.389   5.818   4.729 -0.5271  2.1919  0.3320
15761SOL    HW248725   5.520   5.866   4.787  0.1322 -0.5663  1.2382
15762SOL     OW48726   3.488   2.760  12.211  0.7960 -0.1155 -0.6757
15762SOL    HW148727   3.419   2.803  12.161 -1.4306  0.3282  2.4696
15762SOL    HW248728   3.528   2.830  12.263 -1.3091 -1.1550  2.7499
15763SOL     OW48729   3.824   2.123   5.638 -0.0873 -0.3211  0.2210
15763SOL    HW148730   3.788   2.154   5.721 -0.3704 -1.6182  0.6024
15763SOL    HW248731   3.749   2.086   5.592  0.4123 -1.4155  0.2533
15764SOL     OW48732   6.434   6.540   0.432 -0.2621 -0.2603 -0.1136
15764SOL    HW148733   6.373   6.581   0.493  0.1615  0.5787 -0.2402
15764SOL    HW248734   6.397   6.454   0.416 -0.5241 -0.4030  1.1244
15765SOL     OW48735   5.708   2.492   7.129  0.0571 -0.0572 -0.2258
15765SOL    HW148736   5.671   2.456   7.048 -0.5970  0.5615 -0.2172
15765SOL    HW248737   5.702   2.420   7.192 -0.5843 -0.1585 -0.3941
15766SOL     OW48738   7.339   0.548   4.573 -0.0164  0.3649  0.0841
15766SOL    HW148739   7.324   0.528   4.480  0.7002 -1.3379  0.3093
15766SOL    HW248740   7.394   0.477   4.605  1.7139  2.1353  1.2700
15767SOL     OW48741   4.204   4.464   2.247 -0.1999 -0.1316  0.5720
15767SOL    HW148742   4.172   4.441   2.159 -0.8312 -1.8681  1.2011
15767SOL    HW248743   4.131   4.442   2.305  0.1832  1.0681  1.5433
15768SOL     OW48744   6.195   1.744   3.260 -0.8661  0.4229  0.8733
15768SOL    HW148745   6.131   1.673   3.262 -0.4545  0.0163  3.3630
15768SOL    HW248746   6.143   1.823   3.249 -1.2724 -0.1876 -2.8571
15769SOL     OW48747   0.369   7.652   7.408  0.1185  0.2486 -0.3070
15769SOL    HW148748   0.403   7.690   7.328  0.6963 -2.5228 -1.5187
15769SOL    HW248749   0.396   7.560   7.404  1.0173  0.1540  3.5363
15770SOL     OW48750   0.624   1.982   1.257 -0.1724  0.1847  0.1556
15770SOL    HW148751   0.671   2.011   1.336 -0.1442 -0.7996  0.5121
15770SOL    HW248752   0.683   1.918   1.216 -0.3237  0.4573 -0.5039
15771SOL     OW48753   7.633   7.367   3.839  0.0034  0.5581  0.3664
15771SOL    HW148754   7.666   7.457   3.842  0.2484  0.4639  0.4937
15771SOL    HW248755   7.593   7.353   3.925 -1.3149  1.0262 -0.1351
15772SOL     OW48756   4.789   5.268   3.852 -0.1678  0.1118 -0.4029
15772SOL    HW148757   4.772   5.200   3.918  0.5766  1.5982  1.4090
15772SOL    HW248758   4.850   5.227   3.791 -0.3333 -1.0968  0.2110
15773SOL     OW48759   5.654   6.168   3.201  0.1045 -0.3285  0.1155
15773SOL    HW148760   5.746   6.192   3.202  0.3978 -1.3940 -0.4980
15773SOL    HW248761   5.653   6.073   3.193 -1.0401 -0.1947 -2.4012
15774SOL     OW48762   2.336   4.511   8.867  0.1755 -0.0439  1.2156
15774SOL    HW148763   2.282   4.517   8.945  0.8302 -0.3544  1.6989
15774SOL    HW248764   2.416   4.467   8.896  1.7550  2.5305  1.0840
15775SOL     OW48765   6.075   2.970   0.405 -0.0451  0.2108 -0.2833
15775SOL    HW148766   6.136   3.044   0.410  0.3452 -0.1537  0.4152
15775SOL    HW248767   6.101   2.922   0.327  0.8390 -0.1827  0.2453
15776SOL     OW48768   2.314   1.363   2.672 -0.8772  0.0415 -0.3282
15776SOL    HW148769   2.369   1.301   2.720 -0.2780  0.2414 -0.7516
15776SOL    HW248770   2.314   1.441   2.727 -2.7279 -0.7455  0.8840
15777SOL     OW48771   2.355   7.966   2.894 -0.1918 -0.3270 -0.4230
15777SOL    HW148772   2.434   7.999   2.852  0.2770  0.5491  1.0800
15777SOL    HW248773   2.370   7.977   2.988 -3.0166  2.2594 -0.0914
15778SOL     OW48774   1.877   6.392   4.830 -0.2226 -0.1379 -0.0285
15778SOL    HW148775   1.889   6.344   4.912  1.5461 -0.5539 -0.4886
15778SOL    HW248776   1.863   6.483   4.858  1.2937 -0.1114  0.7429
15779SOL     OW48777   4.683   0.748   4.216  0.5555 -0.5186  0.7553
15779SOL    HW148778   4.618   0.679   4.226 -1.1405  0.7367 -0.8647
15779SOL    HW248779   4.691   0.760   4.121 -0.1368  2.3062  0.9648
15780SOL     OW48780   1.929   6.084   3.619  0.0698 -0.3918 -0.2307
15780SOL    HW148781   1.883   6.162   3.650 -0.0154 -0.5260 -0.0172
15780SOL    HW248782   2.014   6.088   3.662 -0.5658 -1.3499  1.2321
15781SOL     OW48783   7.632   7.067   9.556 -0.0513  0.0326  0.3137
15781SOL    HW148784   7.543   7.038   9.538 -0.4255  1.8556 -1.1766
15781SOL    HW248785   7.630   7.096   9.647 -1.4863  1.5810 -0.1588
15782SOL     OW48786   1.679   0.336   5.760 -0.0371  0.0803 -0.0415
15782SOL    HW148787   1.752   0.288   5.798 -0.2843 -0.8575 -0.7112
15782SOL    HW248788   1.610   0.271   5.749 -0.2672  0.5022 -1.2978
15783SOL     OW48789   0.430   4.806   4.066 -0.2352 -0.1305  0.2105
15783SOL    HW148790   0.400   4.874   4.006 -2.0578 -0.0155  1.1553
15783SOL    HW248791   0.363   4.738   4.060 -0.9655  0.2564  2.6788
15784SOL     OW48792   4.249   2.168   3.400 -0.1248  0.3745  0.5119
15784SOL    HW148793   4.251   2.212   3.486  0.6708  1.5078 -0.0568
15784SOL    HW248794   4.320   2.209   3.351  0.1691 -1.0637 -0.3214
15785SOL     OW48795   6.100   3.943  12.265 -0.1679 -0.0750 -0.2653
15785SOL    HW148796   6.065   4.032  12.260 -0.1611 -0.1156 -1.2315
15785SOL    HW248797   6.189   3.950  12.232 -0.6162 -0.6582 -1.7046
15786SOL     OW48798   4.859   5.754   8.325  0.2596 -0.3979 -0.1775
15786SOL    HW148799   4.773   5.725   8.297  0.2931 -0.6067 -0.0627
15786SOL    HW248800   4.841   5.823   8.390  0.1833 -0.0338 -0.5800
15787SOL     OW48801   7.388   4.107  11.339  0.0835  0.6164  0.0921
15787SOL    HW148802   7.313   4.055  11.309  0.0061  0.2099  0.9610
15787SOL    HW248803   7.351   4.193  11.359 -0.0193  0.6281 -0.1449
15788SOL     OW48804   3.702   2.756   7.357  0.1092 -0.3281 -0.0819
15788SOL    HW148805   3.689   2.688   7.422  0.6511 -1.3118 -0.9661
15788SOL    HW248806   3.614   2.785   7.333 -0.1293 -0.8109  0.2153
15789SOL     OW48807   5.076   2.094   6.706 -0.4507 -0.0577 -0.3327
15789SOL    HW148808   5.124   2.155   6.649 -0.3921 -0.2645 -0.5054
15789SOL    HW248809   5.043   2.149   6.777 -1.3349  0.3805 -1.0559
15790SOL     OW48810   1.469   5.308   8.440  0.6784 -0.1047  0.4061
15790SOL    HW148811   1.555   5.280   8.472  1.2032 -2.1645 -2.4101
15790SOL    HW248812   1.456   5.257   8.360 -2.2284  1.7592 -0.4448
15791SOL     OW48813   5.709   3.056   4.447 -0.0327  0.1327 -0.2670
15791SOL    HW148814   5.693   3.102   4.365  1.5854  0.0733 -0.6469
15791SOL    HW248815   5.645   2.984   4.447  0.0932  0.0004 -1.5791
15792SOL     OW48816   7.636   5.016   0.299  0.0008  0.3503 -0.0812
15792SOL    HW148817   7.627   4.945   0.236 -0.6131  0.4346 -0.0958
15792SOL    HW248818   7.679   5.087   0.251 -0.9878  0.6238 -0.5745
15793SOL     OW48819   4.824   5.666   0.304  0.2026 -0.3182 -0.3243
15793SOL    HW148820   4.789   5.747   0.342  0.5593 -0.3041 -0.0274
15793SOL    HW248821   4.747   5.623   0.265 -0.0998 -0.1448  0.0728
15794SOL     OW48822   3.385   0.617  10.006 -0.6444  0.3065  0.0895
15794SOL    HW148823   3.381   0.579   9.918  0.2402  0.7599 -0.1479
15794SOL    HW248824   3.313   0.574  10.053 -2.2488  1.3310 -1.3326
15795SOL     OW48825   3.423   2.241   5.551  0.3338 -0.5312 -0.1807
15795SOL    HW148826   3.335   2.212   5.529  0.3192 -1.3473  0.8894
15795SOL    HW248827   3.425   2.239   5.647  2.0038 -2.0304 -0.2076
15796SOL     OW48828   2.173   3.819  12.223 -0.3692  0.2585  0.0033
15796SOL    HW148829   2.153   3.879  12.151  0.4908  0.3879 -0.1381
15796SOL    HW248830   2.110   3.748  12.213 -0.6812  0.6008 -0.4911
15797SOL     OW48831   1.240   5.191  10.328  0.0961 -0.2989  0.0481
15797SOL    HW148832   1.228   5.097  10.343 -0.2145 -0.1935  0.4815
15797SOL    HW248833   1.155   5.230  10.351  0.6438  0.2404  1.2072
15798SOL     OW48834   4.530   5.882   5.021  0.2817  0.0849  0.0334
15798SOL    HW148835   4.581   5.866   4.942  2.1990  0.7123  1.0946
15798SOL    HW248836   4.545   5.805   5.076 -1.5959 -0.6776 -0.4183
15799SOL     OW48837   2.738   7.926  10.435  0.0405 -0.1429 -0.3814
15799SOL    HW148838   2.810   7.987  10.453  0.1886 -0.5752  0.5532
15799SOL    HW248839   2.676   7.941  10.506  0.5563 -1.7897  0.4583
15800SOL     OW48840   2.947   6.438   9.230 -0.0932  0.4015  0.1005
15800SOL    HW148841   2.894   6.433   9.310 -0.2728 -0.2158 -0.0522
15800SOL    HW248842   2.991   6.523   9.235  0.2851  0.1518  1.0967
15801SOL     OW48843   6.125   0.190  10.057 -0.0123  0.1582  0.4780
15801SOL    HW148844   6.177   0.176   9.978 -1.1525  0.8296 -0.4282
15801SOL    HW248845   6.103   0.283  10.055 -0.5165  0.0648  1.2949
15802SOL     OW48846   1.402   5.584   4.078 -0.1083 -0.3596  0.2611
15802SOL    HW148847   1.386   5.673   4.109  0.3440 -0.0110 -0.4605
15802SOL    HW248848   1.448   5.541   4.150  2.7017  1.0270 -0.5289
15803SOL     OW48849   5.602   5.047  10.199  0.4938  0.2455  0.1570
15803SOL    HW148850   5.669   4.979  10.207  1.4680  1.2059  0.3109
15803SOL    HW248851   5.599   5.089  10.285  0.6999  1.1230 -0.2539
15804SOL     OW48852   0.981   1.993   5.688 -0.0235  0.2083 -0.2920
15804SOL    HW148853   0.959   1.907   5.723 -0.7573  0.7421  0.6124
15804SOL    HW248854   0.957   1.989   5.595  0.7718 -0.8271 -0.4697
15805SOL     OW48855   1.302   7.198   9.610 -0.6533 -0.1210  0.5039
15805SOL    HW148856   1.225   7.229   9.657 -1.4922 -0.0372 -0.8843
15805SOL    HW248857   1.314   7.262   9.539  0.6123 -0.2072  0.6212
15806SOL     OW48858   5.953   0.356   7.581  0.1573 -0.1034  0.3560
15806SOL    HW148859   5.964   0.409   7.502 -0.5909  0.7449  0.8039
15806SOL    HW248860   5.880   0.397   7.627 -0.6186 -1.6871  0.5970
15807SOL     OW48861   2.071   6.529   0.626 -0.1125  0.2288  0.0613
15807SOL    HW148862   2.105   6.442   0.647 -1.9955 -0.0781  2.1304
15807SOL    HW248863   2.128   6.589   0.674 -0.2048 -0.0277  0.4995
15808SOL     OW48864   1.042   5.371   6.384 -0.4842  0.1083  0.3440
15808SOL    HW148865   1.041   5.450   6.329 -1.7686 -0.0548  0.0913
15808SOL    HW248866   1.010   5.301   6.326  0.4987 -0.5759  0.6055
15809SOL     OW48867   4.921   1.801   8.206 -0.2950  0.0442 -0.1607
15809SOL    HW148868   4.937   1.738   8.276  1.6462 -1.0931 -1.5405
15809SOL    HW248869   4.828   1.822   8.213 -0.6100 -1.6705  1.3975
15810SOL     OW48870   2.997   7.054   5.932  0.1638 -0.2033  0.2119
15810SOL    HW148871   2.989   6.962   5.909 -2.3228  0.4704 -2.1034
15810SOL    HW248872   3.059   7.089   5.868 -0.8563  0.1710 -0.6062
15811SOL     OW48873   6.791   6.097  10.178 -0.2410  0.3228  0.1790
15811SOL    HW148874   6.877   6.097  10.220 -0.6677 -0.7289  1.0981
15811SOL    HW248875   6.785   6.012  10.134 -0.6507  0.5520 -0.2278
15812SOL     OW48876   3.128   5.805   2.017 -0.0159  0.0212 -0.4243
15812SOL    HW148877   3.136   5.715   1.985  0.6938  0.2243 -0.8587
15812SOL    HW248878   3.146   5.799   2.111 -1.1134 -0.4411 -0.2279
15813SOL     OW48879   6.215   0.737  10.633 -0.1482 -0.4513  0.3933
15813SOL    HW148880   6.221   0.646  10.606  0.7229 -0.8276  1.7721
15813SOL    HW248881   6.200   0.785  10.551  2.3183 -1.5295 -0.7989
15814SOL     OW48882   2.678   6.763   2.724 -0.7340  0.4074  0.2691
15814SOL    HW148883   2.676   6.782   2.630 -2.2344 -1.8306 -0.2198
15814SOL    HW248884   2.616   6.825   2.763 -3.0720 -1.1369 -0.8076
15815SOL     OW48885   0.873   3.151   3.496  0.1054  0.8535  0.3050
15815SOL    HW148886   0.926   3.072   3.483 -0.4584  0.1564  1.8863
15815SOL    HW248887   0.793   3.118   3.537 -1.2199  1.9775 -1.2788
15816SOL     OW48888   6.421   1.901   8.725 -0.1133 -0.2396 -0.0054
15816SOL    HW148889   6.486   1.856   8.780  0.7394 -1.5606 -1.9681
15816SOL    HW248890   6.447   1.993   8.728 -0.0375 -0.2938  1.6950
15817SOL     OW48891   7.788   4.683  11.874  0.1406  0.1802  0.6997
15817SOL    HW148892   7.718   4.745  11.852 -0.0618 -0.4506 -0.5188
15817SOL    HW248893   7.855   4.697  11.807  0.3438 -0.5095  0.7524
15818SOL     OW48894   1.961   7.400   0.372  0.0856  0.4096 -0.6320
15818SOL    HW148895   1.907   7.321   0.369  0.7220 -0.0916  0.5045
15818SOL    HW248896   1.904   7.467   0.409  0.4899 -0.3801  1.5724
15819SOL     OW48897   2.277   5.708   1.855 -0.4323 -0.1130  0.4830
15819SOL    HW148898   2.270   5.679   1.764 -0.0692  2.4079 -0.4325
15819SOL    HW248899   2.357   5.667   1.888  0.1648 -0.0017 -0.7761
15820SOL     OW48900   6.093   5.489   0.170  0.1155  0.7148  0.2471
15820SOL    HW148901   6.134   5.459   0.251 -1.6605 -0.1576  0.9048
15820SOL    HW248902   6.034   5.560   0.198 -0.1440  0.7396 -0.3506
15821SOL     OW48903   5.767   1.672   8.707 -0.5649  0.1005  0.2034
15821SOL    HW148904   5.738   1.640   8.792  1.3328  1.2511  1.3469
15821SOL    HW248905   5.713   1.623   8.644 -3.1599  0.3544  2.0462
15822SOL     OW48906   5.478   4.998   6.212  0.6346 -0.4636 -0.1627
15822SOL    HW148907   5.489   5.045   6.294  2.5703 -0.2607 -0.5014
15822SOL    HW248908   5.547   4.932   6.213  1.6026  0.4427 -2.2170
15823SOL     OW48909   6.920   5.266   6.206 -0.1916  0.4469 -0.0743
15823SOL    HW148910   6.850   5.330   6.195 -1.2586 -0.8880 -1.3058
15823SOL    HW248911   6.994   5.317   6.239 -0.8446  2.4068 -1.4888
15824SOL     OW48912   1.476   0.468  11.589 -0.0129 -0.0769 -0.2323
15824SOL    HW148913   1.407   0.417  11.632 -0.4736 -0.4986 -1.4323
15824SOL    HW248914   1.465   0.450  11.496  1.2966  0.3962 -0.5016
15825SOL     OW48915   0.887   6.155   2.504  0.4223  0.5366  0.2466
15825SOL    HW148916   0.925   6.117   2.583 -0.6409 -0.6516  0.2210
15825SOL    HW248917   0.861   6.080   2.450 -0.8609  1.2831 -0.2478
15826SOL     OW48918   5.645   5.018   0.647  0.3305  0.6320  0.2074
15826SOL    HW148919   5.680   5.106   0.664  1.6470  0.4837 -1.4773
15826SOL    HW248920   5.596   5.028   0.566 -0.7566  0.0903  0.7837
15827SOL     OW48921   0.962   0.865  11.597  0.1603 -0.1924 -0.0266
15827SOL    HW148922   1.017   0.826  11.666 -0.5963 -0.7112  0.2927
15827SOL    HW248923   0.873   0.854  11.628 -0.1923 -0.3589 -1.0566
15828SOL     OW48924   1.150   1.701  11.088 -0.5525  0.4103  0.0455
15828SOL    HW148925   1.056   1.699  11.105 -0.1220 -1.6909  2.7644
15828SOL    HW248926   1.179   1.610  11.099  2.0401  1.2549  0.9869
15829SOL     OW48927   7.386   7.472   9.855 -0.0828 -0.0880 -0.1313
15829SOL    HW148928   7.469   7.444   9.895  0.7067  1.8122 -0.3218
15829SOL    HW248929   7.323   7.470   9.927  0.2437 -0.9936  0.1484
15830SOL     OW48930   0.745   4.465   7.290 -0.1502 -0.1854  0.3740
15830SOL    HW148931   0.776   4.548   7.326  1.5110 -0.6776  0.1413
15830SOL    HW248932   0.656   4.484   7.260  1.0083  2.2480 -1.9693
15831SOL     OW48933   6.379   3.380   0.802  0.0131  0.2809 -0.2510
15831SOL    HW148934   6.296   3.349   0.840  0.0891  1.0147  0.5676
15831SOL    HW248935   6.353   3.446   0.738 -0.0992 -0.7112 -1.2612
15832SOL     OW48936   0.433   3.190  11.952 -0.1125  0.3023  0.3504
15832SOL    HW148937   0.445   3.176  11.858 -0.2607  0.9255  0.2295
15832SOL    HW248938   0.400   3.280  11.958  1.0114  0.6895  1.0765
15833SOL     OW48939   0.946   1.376   7.956 -0.2859  0.1302 -0.2543
15833SOL    HW148940   1.022   1.321   7.935 -0.7212 -0.0635 -1.3920
15833SOL    HW248941   0.875   1.314   7.970 -0.4910  0.3519 -0.3061
15834SOL     OW48942   4.490   7.783   2.758 -0.3989  0.4440  0.0256
15834SOL    HW148943   4.522   7.830   2.681  0.2605  0.3403  0.2290
15834SOL    HW248944   4.563   7.789   2.821 -0.4416 -0.5648  0.1751
15835SOL     OW48945   5.185   3.974   4.587 -0.0758  0.1628  0.3859
15835SOL    HW148946   5.199   3.891   4.541 -1.3520  0.2174 -0.1574
15835SOL    HW248947   5.150   3.948   4.672  2.7763  0.0373  1.6371
15836SOL     OW48948   6.077   4.778  11.370 -0.2638  0.0428  0.0132
15836SOL    HW148949   5.987   4.788  11.400 -0.4416  1.1542 -0.8296
15836SOL    HW248950   6.073   4.711  11.302 -0.1349 -1.2184  1.1926
15837SOL     OW48951   3.470   1.855  10.909  0.2936 -0.4373 -0.3789
15837SOL    HW148952   3.426   1.852  10.994  3.5317  0.0869  1.5109
15837SOL    HW248953   3.445   1.940  10.872  0.3013  0.1884  0.9746
15838SOL     OW48954   6.990   0.943   1.618 -0.1648  0.3209  0.3509
15838SOL    HW148955   7.019   0.861   1.659 -0.1151  0.5589  0.8002
15838SOL    HW248956   7.017   0.935   1.527 -1.1160 -0.6333  0.1343
15839SOL     OW48957   6.822   2.536   9.487 -0.0138 -0.4604  0.1266
15839SOL    HW148958   6.821   2.445   9.457  0.4928 -0.8052  1.1177
15839SOL    HW248959   6.753   2.579   9.436 -0.0732 -1.3321 -0.5485
15840SOL     OW48960   7.607   6.258   5.614 -0.1621  0.1406 -0.3462
15840SOL    HW148961   7.687   6.299   5.581 -0.4904  1.8521  0.8592
15840SOL    HW248962   7.608   6.274   5.708 -1.6493 -0.3153 -0.2260
15841SOL     OW48963   2.854   5.920   0.207 -0.1878 -0.3835 -0.2247
15841SOL    HW148964   2.804   5.861   0.151  0.1626  0.0431 -1.0081
15841SOL    HW248965   2.943   5.886   0.204 -0.4129 -1.2003  1.2452
15842SOL     OW48966   4.337   6.570   8.565  0.0681 -0.2887  0.3270
15842SOL    HW148967   4.367   6.661   8.565 -0.4192 -0.1192  0.8452
15842SOL    HW248968   4.274   6.566   8.637  0.1669 -1.0633  0.3761
15843SOL     OW48969   4.975   4.978  10.723 -0.4887 -0.1569  0.0845
15843SOL    HW148970   5.012   4.912  10.781 -1.3017 -0.6699  0.0269
15843SOL    HW248971   5.050   5.033  10.698 -0.3894  1.3705  3.2282
15844SOL     OW48972   2.464   1.491   3.342 -0.2001 -0.2291  0.4992
15844SOL    HW148973   2.448   1.456   3.255 -1.4539  0.5906  0.3664
15844SOL    HW248974   2.470   1.414   3.398  0.1004 -0.7455 -0.2311
15845SOL     OW48975   6.163   4.470   6.415 -0.2596 -0.0847 -0.1259
15845SOL    HW148976   6.155   4.501   6.505  0.0000  0.4823 -0.2866
15845SOL    HW248977   6.233   4.525   6.378 -1.5854  0.9599 -1.1881
15846SOL     OW48978   7.441   3.637   7.557  0.8044  0.2457 -0.4020
15846SOL    HW148979   7.421   3.667   7.645  2.1546 -1.4002  0.5132
15846SOL    HW248980   7.529   3.670   7.539  1.1488 -0.7074 -0.5151
15847SOL     OW48981   5.735   4.663   5.885  0.4972 -0.0936 -0.0962
15847SOL    HW148982   5.742   4.758   5.881 -0.0697 -0.0025  0.8676
15847SOL    HW248983   5.820   4.634   5.918  0.2853  0.1671  0.6877
15848SOL     OW48984   7.368   3.702   6.876 -0.2374  0.0113  0.6305
15848SOL    HW148985   7.362   3.750   6.959 -2.3839  0.4172  0.3063
15848SOL    HW248986   7.354   3.611   6.901 -1.1052  0.1573  0.7173
15849SOL     OW48987   2.813   3.147  11.614  0.1170 -0.0018  0.2853
15849SOL    HW148988   2.769   3.200  11.548  0.7437  0.7196  0.4286
15849SOL    HW248989   2.758   3.154  11.692  0.6973  1.2810  0.6062
15850SOL     OW48990   7.020   2.675   4.267 -0.2162 -0.2590  0.7587
15850SOL    HW148991   7.094   2.731   4.290  0.5378  0.5158 -2.9911
15850SOL    HW248992   7.043   2.590   4.305  2.7689 -0.0916 -0.4169
15851SOL     OW48993   3.233   6.875   2.079  0.5958  0.8113  0.1392
15851SOL    HW148994   3.201   6.785   2.069 -0.0141  0.9125  1.1401
15851SOL    HW248995   3.155   6.927   2.095  1.0597  1.3512  0.6968
15852SOL     OW48996   6.886   7.066   3.649 -0.0067 -0.3390 -0.0280
15852SOL    HW148997   6.798   7.075   3.613  0.4416 -2.3739 -1.8282
15852SOL    HW248998   6.898   6.972   3.660  2.5263 -0.2613 -1.4218
15853SOL     OW48999   4.753   5.681   7.545  0.4396  0.0506  0.2659
15853SOL    HW149000   4.689   5.731   7.594  0.3418  0.0185  0.1714
15853SOL    HW249001   4.790   5.743   7.482  2.3017  0.7596  1.9442
15854SOL     OW49002   1.931   7.656   8.296 -0.1656  0.1542  0.0563
15854SOL    HW149003   1.977   7.738   8.278 -1.3748  1.5000  2.5609
15854SOL    HW249004   1.854   7.660   8.240 -0.6543  1.2006  0.7601
15855SOL     OW49005   5.792   0.226   2.017  0.7740  0.3204 -0.5929
15855SOL    HW149006   5.789   0.254   2.108  3.1151 -0.5151 -0.1952
15855SOL    HW249007   5.735   0.287   1.971 -0.8811  0.4599  1.4698
15856SOL     OW49008   2.100   5.367   1.625 -0.1671 -0.4095  0.0589
15856SOL    HW149009   2.151   5.343   1.702 -0.6907  0.9661  0.8806
15856SOL    HW249010   2.104   5.290   1.568  0.9868 -1.1231  1.0498
15857SOL     OW49011   5.242   0.077   4.287  0.4038  0.4468 -0.2575
15857SOL    HW149012   5.204   0.159   4.319  2.7340  0.6180  2.4800
15857SOL    HW249013   5.332   0.078   4.319  1.2809 -2.1057 -2.2657
15858SOL     OW49014   5.212   6.746   8.019 -0.4010 -0.0443 -0.1386
15858SOL    HW149015   5.215   6.801   7.940  0.4420 -0.8594 -0.6904
15858SOL    HW249016   5.272   6.789   8.080 -0.9860  0.5385  0.0400
15859SOL     OW49017   2.559   5.583   3.647 -0.0448  0.3005 -0.2476
15859SOL    HW149018   2.609   5.517   3.695  0.2035 -0.8669 -2.0345
15859SOL    HW249019   2.621   5.656   3.638  1.1768 -0.8404 -1.7827
15860SOL     OW49020   5.725   5.294   8.987  0.5628  0.5147 -0.4199
15860SOL    HW149021   5.680   5.378   8.993 -0.0064  0.2024 -0.1047
15860SOL    HW249022   5.730   5.275   8.894  0.1737  0.6317 -0.4654
15861SOL     OW49023   4.662   4.475   8.953  0.7423 -0.0682  0.3675
15861SOL    HW149024   4.710   4.482   9.036  0.2898 -1.3018  0.7567
15861SOL    HW249025   4.728   4.446   8.890  1.5421  2.6799 -0.1998
15862SOL     OW49026   0.095   0.151   1.733  0.0830  0.1915 -0.6029
15862SOL    HW149027   0.144   0.156   1.652  2.0311 -2.2601  0.2745
15862SOL    HW249028   0.141   0.209   1.794 -0.5004  0.9166 -0.8502
15863SOL     OW49029   3.288   2.893   4.898 -0.1495  0.1526  0.4959
15863SOL    HW149030   3.276   2.973   4.847  1.7809  0.3583  0.2627
15863SOL    HW249031   3.237   2.827   4.851 -0.6319  0.9429 -0.1183
15864SOL     OW49032   4.150   7.244   2.252  0.0940 -0.5328  0.0099
15864SOL    HW149033   4.090   7.315   2.230 -1.1900 -1.1761  1.2490
15864SOL    HW249034   4.215   7.284   2.309 -0.0213 -0.1325 -0.1386
15865SOL     OW49035   7.733   3.182   4.317 -0.6655 -0.0739  0.2838
15865SOL    HW149036   7.748   3.096   4.280 -1.1576 -0.3522  0.7251
15865SOL    HW249037   7.756   3.243   4.247  0.2732 -0.5396  0.1687
15866SOL     OW49038   1.659   0.738   4.359 -0.4559  0.6136 -0.1077
15866SOL    HW149039   1.620   0.765   4.443 -0.6737  2.0833 -0.6650
15866SOL    HW249040   1.727   0.675   4.384  0.1222  1.7281  1.2642
15867SOL     OW49041   5.074   0.488   1.059 -0.0044 -0.5361 -0.1329
15867SOL    HW149042   5.066   0.425   1.131 -0.4476  0.3248  0.5883
15867SOL    HW249043   4.988   0.487   1.017 -0.7786  1.1923  1.2711
15868SOL     OW49044   5.240   0.327   0.469  0.3728 -0.4631  0.1753
15868SOL    HW149045   5.145   0.316   0.472  0.5853 -2.4434  1.6552
15868SOL    HW249046   5.262   0.376   0.549  0.4131  2.6895 -1.5945
15869SOL     OW49047   1.309   7.115   5.463 -0.3302  0.5992  0.2045
15869SOL    HW149048   1.404   7.108   5.476 -0.0948 -4.1711 -2.0397
15869SOL    HW249049   1.299   7.182   5.395  1.6526  0.0786 -0.6838
15870SOL     OW49050   1.728   2.894   9.275 -0.1387  0.0203  0.1412
15870SOL    HW149051   1.819   2.920   9.289 -0.1464  0.4783 -0.6007
15870SOL    HW249052   1.680   2.977   9.275 -0.3052 -0.0548 -1.2592
15871SOL     OW49053   6.680   5.250   6.830 -0.1616  0.3721  0.2794
15871SOL    HW149054   6.755   5.241   6.888 -0.3786  1.0480  0.6792
15871SOL    HW249055   6.648   5.161   6.818  1.3838 -0.0765 -0.8275
15872SOL     OW49056   1.876   2.619   6.929  0.1219  0.4067  0.0323
15872SOL    HW149057   1.812   2.654   6.991  0.0529 -0.3313  0.3831
15872SOL    HW249058   1.858   2.666   6.847  1.2969  2.6418  0.9432
15873SOL     OW49059   2.449   6.610   8.760  0.0563  0.5292  0.6962
15873SOL    HW149060   2.409   6.563   8.686 -1.9483  1.3369  1.1915
15873SOL    HW249061   2.389   6.594   8.833  0.6889  1.7721  1.5242
15874SOL     OW49062   5.280   2.839  12.355 -0.0645  0.0548 -0.4845
15874SOL    HW149063   5.252   2.912  12.301 -1.2725 -1.7493 -2.4760
15874SOL    HW249064   5.210   2.828  12.420  0.4620  1.0531  0.2711
15875SOL     OW49065   0.700   6.438  11.392 -0.0099  0.2953 -0.3480
15875SOL    HW149066   0.715   6.490  11.471 -4.0397 -0.4519  1.1307
15875SOL    HW249067   0.769   6.372  11.393  0.9583  1.2524  1.6814
15876SOL     OW49068   2.131   0.714   0.452  0.5189  0.3402  0.4912
15876SOL    HW149069   2.192   0.788   0.452  0.7264  0.1697  0.5736
15876SOL    HW249070   2.046   0.753   0.431  0.6088  0.6167  0.6391
15877SOL     OW49071   0.827   2.391   7.643 -0.1230 -0.0507 -0.5642
15877SOL    HW149072   0.734   2.379   7.627  0.4027 -1.1824 -3.4486
15877SOL    HW249073   0.861   2.426   7.560  1.5306  3.9701  1.5218
15878SOL     OW49074   3.996   6.698   3.790  0.3297  0.0009  0.3927
15878SOL    HW149075   3.963   6.609   3.777 -0.2457  0.1347  0.9123
15878SOL    HW249076   4.091   6.688   3.790  0.3472 -0.3375 -1.4698
15879SOL     OW49077   0.168   1.155  12.274  0.1804  0.0700 -0.3531
15879SOL    HW149078   0.235   1.113  12.328  0.2008  0.1610 -0.3075
15879SOL    HW249079   0.183   1.249  12.284 -0.9567  0.1532  0.9708
15880SOL     OW49080   5.957   3.750  11.761 -0.6065 -0.1404 -0.1788
15880SOL    HW149081   5.989   3.781  11.846  0.0315  0.4948 -0.6285
15880SOL    HW249082   5.977   3.657  11.760  3.5312  0.5137 -1.3017
15881SOL     OW49083   3.607   3.260   9.846  0.0548 -0.3967 -0.4611
15881SOL    HW149084   3.607   3.346   9.888  0.5761 -0.1419 -0.9576
15881SOL    HW249085   3.531   3.215   9.883  0.5145 -0.2029  0.7781
15882SOL     OW49086   0.104   3.584   6.423 -0.4946  0.5154 -0.6876
15882SOL    HW149087   0.191   3.561   6.392 -1.4266 -0.7630 -2.5080
15882SOL    HW249088   0.051   3.507   6.405 -2.2237  1.6056 -0.5016
15883SOL     OW49089   3.950   6.228   9.794  0.2497  0.3039 -0.0222
15883SOL    HW149090   3.873   6.184   9.758  0.5125 -1.2156  1.1828
15883SOL    HW249091   4.013   6.157   9.808  0.9673  1.1658  1.2640
15884SOL     OW49092   3.218   1.551   2.369 -0.0495 -0.5734 -0.9630
15884SOL    HW149093   3.312   1.560   2.359  0.0030 -1.1518 -1.0059
15884SOL    HW249094   3.181   1.609   2.303  0.2769 -0.7885 -1.3369
15885SOL     OW49095   0.798   0.775   2.153  0.4913 -0.4445  0.4545
15885SOL    HW149096   0.711   0.815   2.152  0.6079 -0.1094  1.7597
15885SOL    HW249097   0.801   0.721   2.074 -0.2982  0.8054 -0.4551
15886SOL     OW49098   1.805   7.250   9.788 -0.6688  0.1593  0.8398
15886SOL    HW149099   1.880   7.308   9.773 -1.6134  1.2471  0.0888
15886SOL    HW249100   1.783   7.264   9.880  0.9064 -1.2745  1.4837
15887SOL     OW49101   2.220   3.975   8.024  0.8103  0.5560 -0.0488
15887SOL    HW149102   2.254   3.915   8.090  1.6190  0.1516 -0.8050
15887SOL    HW249103   2.137   3.935   7.996 -0.0376  1.2478  1.3946
15888SOL     OW49104   3.823   4.335  10.796  0.3599 -0.2073 -0.4372
15888SOL    HW149105   3.841   4.260  10.739  0.8286 -0.3120 -0.1550
15888SOL    HW249106   3.894   4.396  10.778 -0.1104  0.2409 -0.7817
15889SOL     OW49107   3.744   2.876   3.412  0.1849 -0.4302  0.4529
15889SOL    HW149108   3.752   2.805   3.475  0.5011 -1.1406 -0.3647
15889SOL    HW249109   3.666   2.855   3.362  0.7497 -0.6729 -0.3476
15890SOL     OW49110   3.134   2.270   3.640 -0.7293 -0.1454  0.0383
15890SOL    HW149111   3.196   2.334   3.672  0.2984 -0.8699 -0.4523
15890SOL    HW249112   3.095   2.233   3.719 -1.0347  0.7697  0.3327
15891SOL     OW49113   7.932   6.612   8.822 -0.2570  0.6641  0.2113
15891SOL    HW149114   7.911   6.637   8.912 -2.2601  1.5357 -0.4577
15891SOL    HW249115   7.954   6.519   8.829  1.0178  1.0212  1.7764
15892SOL     OW49116   3.617   0.047   9.146  0.0962 -0.0614 -0.1894
15892SOL    HW149117   3.712   0.036   9.140  0.1654 -0.2810  1.0112
15892SOL    HW249118   3.581  -0.023   9.093  0.5854  1.2044 -2.3263
15893SOL     OW49119   2.081   3.704   6.102 -0.0083  0.4223 -0.3070
15893SOL    HW149120   2.127   3.706   6.186  0.3398 -0.8261 -0.4486
15893SOL    HW249121   2.010   3.768   6.112  0.5625  0.9280  0.6147
15894SOL     OW49122   6.244   5.705   7.830  0.0980  0.0291  0.0184
15894SOL    HW149123   6.170   5.727   7.887 -0.7090 -0.9577 -0.5947
15894SOL    HW249124   6.318   5.693   7.890 -0.3368  0.5996  0.6901
15895SOL     OW49125   7.007   6.559   0.370  0.1792  0.1308  0.0159
15895SOL    HW149126   6.911   6.553   0.368  0.1713  0.3189 -0.8416
15895SOL    HW249127   7.032   6.563   0.277  0.9124  1.7251  0.2442
15896SOL     OW49128   0.067   2.910  11.677 -0.1039  0.3656  0.2168
15896SOL    HW149129   0.049   2.841  11.614 -0.8028  1.4656 -0.8322
15896SOL    HW249130   0.162   2.924  11.673  0.3362 -1.6820  1.7310
15897SOL     OW49131   7.846   1.708  10.704 -0.0126 -0.4294 -0.0873
15897SOL    HW149132   7.762   1.679  10.738  0.2809 -0.6316  0.4727
15897SOL    HW249133   7.873   1.638  10.644 -0.4195 -0.1819 -0.5682
15898SOL     OW49134   5.796   3.236   8.600 -0.2960 -0.3367  0.7799
15898SOL    HW149135   5.787   3.329   8.622 -1.3016 -0.4166  0.7552
15898SOL    HW249136   5.823   3.194   8.682 -1.3769 -0.2395  1.2055
15899SOL     OW49137   3.613   0.440  11.838  0.3505 -0.8908 -0.0892
15899SOL    HW149138   3.591   0.364  11.784 -2.1215  0.6577 -1.4665
15899SOL    HW249139   3.537   0.453  11.894 -0.9168  2.3905 -2.2320
15900SOL     OW49140   0.183   5.004  10.514  0.5028 -0.4395  0.1082
15900SOL    HW149141   0.096   5.041  10.531  1.0377  1.3187 -0.7172
15900SOL    HW249142   0.188   5.000  10.418  0.8071 -1.9038  0.1646
15901SOL     OW49143   5.625   2.301  11.846 -0.0701 -0.1303 -0.5398
15901SOL    HW149144   5.656   2.246  11.918  1.8415  0.5778 -0.7695
15901SOL    HW249145   5.617   2.388  11.885  1.8089  0.4399 -1.3271
15902SOL     OW49146   0.971   7.533   5.612 -0.0642 -0.3019 -0.0042
15902SOL    HW149147   1.034   7.562   5.545 -0.7424  0.6980 -0.2271
15902SOL    HW249148   0.939   7.614   5.652 -1.3064 -0.7837  0.0227
15903SOL     OW49149   1.643   6.258  11.012  0.0348  0.2201 -0.2012
15903SOL    HW149150   1.581   6.185  11.020  0.9038 -0.5408 -0.2932
15903SOL    HW249151   1.728   6.220  11.035  0.4444  1.2972  0.1163
15904SOL     OW49152   3.521   1.495   5.807  0.3534  0.5859 -0.0337
15904SOL    HW149153   3.473   1.493   5.889  0.3423  0.3932 -0.0439
15904SOL    HW249154   3.452   1.492   5.740  0.0862  4.3026 -0.1463
15905SOL     OW49155   0.712   5.947  10.131 -0.0464  0.4979 -0.0288
15905SOL    HW149156   0.804   5.919  10.133 -0.2235 -0.6784 -3.1097
15905SOL    HW249157   0.710   6.018  10.067 -1.4218 -0.3522 -0.9977
15906SOL     OW49158   7.774   0.105   8.833  0.0010  0.2376  0.1057
15906SOL    HW149159   7.836   0.073   8.899 -0.3287 -2.8446 -0.9121
15906SOL    HW249160   7.692   0.116   8.881 -0.1695 -1.7133  0.3637
15907SOL     OW49161   4.612   5.829  12.087 -0.3590  1.1071  0.2915
15907SOL    HW149162   4.576   5.747  12.119 -0.6359  2.3744  3.5872
15907SOL    HW249163   4.536   5.886  12.072 -0.0754  1.3683 -0.2235
15908SOL     OW49164   7.771   5.294   7.592 -0.0332  0.3452  1.2348
15908SOL    HW149165   7.702   5.323   7.532  0.3476 -1.0851  0.0501
15908SOL    HW249166   7.725   5.239   7.657 -0.1844  0.3789  1.1565
15909SOL     OW49167   0.555   1.922  10.269 -0.1400 -0.7254  0.5487
15909SOL    HW149168   0.507   1.869  10.206 -0.6724  0.6271 -0.2368
15909SOL    HW249169   0.579   1.861  10.339  0.2128 -2.2119 -0.8014
15910SOL     OW49170   2.059   7.211   0.136  0.2296  0.2093 -0.0566
15910SOL    HW149171   2.066   7.284   0.198  1.7133 -0.9109  1.1814
15910SOL    HW249172   2.006   7.245   0.065  1.5725  2.7808  0.0558
15911SOL     OW49173   7.613   7.702   5.750 -0.3103  0.3151 -1.0543
15911SOL    HW149174   7.621   7.794   5.777 -0.5696 -0.1520  0.7850
15911SOL    HW249175   7.541   7.668   5.804 -1.5233 -0.5076 -3.0908
15912SOL     OW49176   5.110   7.153   1.148 -1.2242 -0.5875 -0.3171
15912SOL    HW149177   5.076   7.079   1.199 -3.1949  0.5458  0.1109
15912SOL    HW249178   5.033   7.206   1.128  0.3339  2.8489  1.8146
15913SOL     OW49179   4.252   4.318   6.399  0.7574  0.2428  0.2681
15913SOL    HW149180   4.187   4.259   6.360  0.3376  1.1337 -0.4192
15913SOL    HW249181   4.221   4.405   6.376 -0.6959  1.0216  4.2965
15914SOL     OW49182   5.421   5.387   5.176 -0.1815  0.5875  0.0537
15914SOL    HW149183   5.407   5.436   5.095  1.4011 -1.1816 -1.3935
15914SOL    HW249184   5.353   5.319   5.174 -0.1567  0.5569  0.2371
15915SOL     OW49185   1.867   0.020   2.049  0.1475 -0.3665  0.6454
15915SOL    HW149186   1.823  -0.063   2.066  0.1500 -0.2969  0.9860
15915SOL    HW249187   1.903   0.010   1.961 -1.0436 -0.2187  0.1111
15916SOL     OW49188   2.615   3.335   4.975 -0.1435  0.1890  0.2714
15916SOL    HW149189   2.597   3.348   5.067  1.6195 -0.0311  0.6930
15916SOL    HW249190   2.711   3.339   4.968 -0.2143 -0.0538 -1.4975
15917SOL     OW49191   4.917   2.935   8.753  0.1195  0.2603 -0.4541
15917SOL    HW149192   4.996   2.940   8.806 -0.5666 -0.5434  0.6981
15917SOL    HW249193   4.862   3.007   8.784 -0.6616 -0.7620  0.6080
15918SOL     OW49194   1.450   2.005   6.765 -0.6414  0.6082 -0.2111
15918SOL    HW149195   1.379   1.951   6.729 -0.8247  0.5997  0.1590
15918SOL    HW249196   1.529   1.954   6.749 -0.9393 -0.3823  1.2653
15919SOL     OW49197   5.981   5.733   4.124 -0.2915 -0.3679  0.7720
15919SOL    HW149198   5.939   5.737   4.038 -0.8397  0.2669  1.0580
15919SOL    HW249199   5.967   5.643   4.153  1.6613 -1.1851 -0.6446
15920SOL     OW49200   4.185   4.702  10.628  0.3436  0.0290  0.0855
15920SOL    HW149201   4.162   4.641  10.558 -0.6129 -1.7450  1.8408
15920SOL    HW249202   4.109   4.759  10.636  1.0782  1.2624 -1.2943
15921SOL     OW49203   1.303   7.646   9.740  0.3616  0.0983 -0.1345
15921SOL    HW149204   1.218   7.604   9.751  0.5911 -1.0305 -2.2447
15921SOL    HW249205   1.365   7.573   9.736  1.0707  0.7425 -1.3885
15922SOL     OW49206   2.238   5.966   1.901  0.4898 -0.6703  0.3815
15922SOL    HW149207   2.250   5.878   1.865  1.5947 -0.5358  0.3778
15922SOL    HW249208   2.208   6.018   1.827 -1.0708 -1.2136  0.5872
15923SOL     OW49209   5.908   7.704   5.084 -0.1427 -0.2209  0.2960
15923SOL    HW149210   5.971   7.727   5.016 -1.0016  0.8583 -0.1754
15923SOL    HW249211   5.888   7.611   5.068 -1.9290  0.5053 -2.3400
15924SOL     OW49212   5.526   6.179   7.376 -0.0824  0.1559 -0.0624
15924SOL    HW149213   5.516   6.187   7.282  1.0049  0.0501 -0.1986
15924SOL    HW249214   5.606   6.127   7.388  1.6682  2.8400  0.9059
15925SOL     OW49215   1.173   6.465   1.922 -0.8249  0.4963  0.2418
15925SOL    HW149216   1.179   6.483   1.828  0.9360  1.6115  0.5181
15925SOL    HW249217   1.140   6.546   1.960  3.1370  1.9959  1.0355
15926SOL     OW49218   4.479   6.686   7.361 -0.0124  0.7330  0.0551
15926SOL    HW149219   4.548   6.664   7.298 -1.2844  0.9160 -1.4585
15926SOL    HW249220   4.457   6.603   7.403 -0.5582  0.1948 -1.2444
15927SOL     OW49221   0.659   0.314   2.052  0.2704  0.4473  0.0436
15927SOL    HW149222   0.603   0.390   2.065  2.2549  1.6409  2.4835
15927SOL    HW249223   0.707   0.333   1.971 -0.5745  0.8976 -0.3564
15928SOL     OW49224   2.443   4.244   6.517 -0.0400  0.3068  0.2012
15928SOL    HW149225   2.351   4.256   6.541  0.3202 -0.5716  2.2209
15928SOL    HW249226   2.491   4.289   6.587  1.0755 -1.0252  0.3208
15929SOL     OW49227   0.184   5.026   8.315  0.4055 -0.2247 -0.2410
15929SOL    HW149228   0.265   5.045   8.267 -0.4664 -0.2705 -1.7871
15929SOL    HW249229   0.197   5.068   8.400  1.7043  0.5149 -0.7694
15930SOL     OW49230   1.286   7.589   6.165 -1.1295 -0.2839 -0.1766
15930SOL    HW149231   1.214   7.625   6.113 -0.1479  1.7330 -0.2297
15930SOL    HW249232   1.313   7.660   6.223  0.4755 -1.1453  0.2097
15931SOL     OW49233   1.483   3.397  10.399  0.3534  0.4313 -0.4524
15931SOL    HW149234   1.394   3.362  10.402  0.8316 -0.7945  0.2266
15931SOL    HW249235   1.474   3.490  10.416 -0.8156  0.3543 -0.6196
15932SOL     OW49236   1.221   4.591   4.817  0.1376  0.0333 -0.5589
15932SOL    HW149237   1.305   4.612   4.778  0.0364  1.9256  0.1584
15932SOL    HW249238   1.232   4.613   4.910 -0.9889 -0.1976 -0.3597
15933SOL     OW49239   2.616   3.398   1.527  0.5444  0.1219  0.8215
15933SOL    HW149240   2.650   3.309   1.525 -0.3547 -0.3209  2.7234
15933SOL    HW249241   2.574   3.410   1.442  1.2885 -0.9834  0.2648
15934SOL     OW49242   4.589   2.603   9.134  0.0878 -0.1486  0.0175
15934SOL    HW149243   4.605   2.516   9.098  1.0833 -0.4551  1.1197
15934SOL    HW249244   4.600   2.663   9.060  0.7208 -0.8524 -0.4732
15935SOL     OW49245   0.114   7.541   2.959  0.2522  0.0523  0.1369
15935SOL    HW149246   0.146   7.476   2.896  0.4860  0.6405 -0.3604
15935SOL    HW249247   0.069   7.489   3.026  1.3060 -0.7156  0.2897
15936SOL     OW49248   4.070   6.459  10.649  0.3785 -0.1638  0.1913
15936SOL    HW149249   4.047   6.432  10.737  0.1033 -0.7445 -0.0507
15936SOL    HW249250   4.126   6.388  10.616  1.4439  0.6050  0.3085
15937SOL     OW49251   2.238   0.425   9.084  0.5006 -0.4089  0.0247
15937SOL    HW149252   2.177   0.399   9.014 -0.7208 -0.5596  1.1039
15937SOL    HW249253   2.236   0.521   9.082  1.7464 -0.3695 -1.1858
15938SOL     OW49254   1.059   5.499   0.573  0.0345 -0.2323  0.4111
15938SOL    HW149255   0.978   5.466   0.533 -0.7608 -2.3309  3.4186
15938SOL    HW249256   1.051   5.594   0.567 -1.3153 -0.3992 -1.7517
15939SOL     OW49257   3.686   0.588   4.981  0.1024 -0.0125 -0.3617
15939SOL    HW149258   3.671   0.503   4.939 -0.5234  0.0741 -0.3225
15939SOL    HW249259   3.612   0.641   4.953  1.3230  1.0556 -1.7514
15940SOL     OW49260   5.031   1.419   0.562  0.5434  0.0017  0.2230
15940SOL    HW149261   4.980   1.429   0.643  2.4938  0.7252  1.4201
15940SOL    HW249262   4.997   1.488   0.505 -1.2285 -0.8577  0.1652
15941SOL     OW49263   3.467   3.300   3.936 -0.1646  0.0610  0.6895
15941SOL    HW149264   3.484   3.349   3.856  0.1470  1.7292  1.7360
15941SOL    HW249265   3.446   3.211   3.905 -0.7879  0.8255 -1.2662
15942SOL     OW49266   5.909   7.652   6.234  0.0830 -0.2684  0.6287
15942SOL    HW149267   5.960   7.732   6.239  1.5484 -0.9777 -1.6543
15942SOL    HW249268   5.824   7.676   6.271  1.1554  1.7106  1.9734
15943SOL     OW49269   5.779   4.539  10.321 -0.4035 -0.4027  0.8832
15943SOL    HW149270   5.771   4.623  10.277  0.0158 -1.1272 -0.6609
15943SOL    HW249271   5.688   4.510  10.333 -0.5368  0.0856  1.0818
15944SOL     OW49272   4.896   5.611   1.097  0.1810 -0.3880 -0.2736
15944SOL    HW149273   4.857   5.526   1.078  0.9834 -0.3653 -2.3081
15944SOL    HW249274   4.981   5.590   1.134  0.3844 -0.4844 -0.7864
15945SOL     OW49275   1.731   3.259   4.392  0.0063  0.5777  0.0137
15945SOL    HW149276   1.773   3.251   4.306 -0.0702 -0.8514  0.0757
15945SOL    HW249277   1.786   3.321   4.440  0.9378  0.2206 -0.5588
15946SOL     OW49278   5.406   0.914   3.176  0.1131  0.0164 -0.0967
15946SOL    HW149279   5.374   0.948   3.260 -1.2175  0.0120 -0.5795
15946SOL    HW249280   5.418   0.821   3.191 -1.7453 -0.3024 -0.3463
15947SOL     OW49281   3.527   6.026   2.945  0.3345  0.3973  0.1830
15947SOL    HW149282   3.581   6.008   3.022 -0.1592  0.3170  0.5121
15947SOL    HW249283   3.526   5.943   2.897 -1.7547 -0.4813  1.5860
15948SOL     OW49284   2.670   6.531   5.403 -0.3040 -0.9444 -0.2924
15948SOL    HW149285   2.700   6.608   5.356 -0.2744 -0.1751  0.9489
15948SOL    HW249286   2.631   6.476   5.335 -0.6902  0.3278 -1.1452
15949SOL     OW49287   6.166   2.696  11.752 -0.0879 -0.1784 -0.1544
15949SOL    HW149288   6.192   2.608  11.779  0.1633 -0.1503 -0.3087
15949SOL    HW249289   6.248   2.744  11.742 -0.1822 -0.1640 -0.8955
15950SOL     OW49290   6.488   3.696   0.445  0.2886 -0.4023  0.2215
15950SOL    HW149291   6.468   3.751   0.369 -2.0111 -0.6135  0.6090
15950SOL    HW249292   6.506   3.610   0.407 -1.4109 -0.6550 -0.1218
15951SOL     OW49293   7.017   5.789  10.622  0.9722 -0.4806 -0.7420
15951SOL    HW149294   7.089   5.739  10.583  0.4396 -2.1867  0.3624
15951SOL    HW249295   7.011   5.757  10.712  2.2977  3.4338  0.9643
15952SOL     OW49296   5.101   0.234   6.538  0.0286  0.3810 -0.1892
15952SOL    HW149297   5.026   0.268   6.587  0.3715  0.3782  0.3385
15952SOL    HW249298   5.119   0.301   6.472  1.1271  1.5721  1.2608
15953SOL     OW49299   1.256   0.565   8.375 -0.4018 -0.7296  0.4560
15953SOL    HW149300   1.210   0.488   8.408  0.1447 -0.3106  2.3377
15953SOL    HW249301   1.236   0.634   8.439 -1.0274  0.7632 -1.2718
15954SOL     OW49302   5.901   2.956   5.780  1.0675  0.3034 -0.1933
15954SOL    HW149303   5.806   2.957   5.771  1.0983  0.3738 -0.4970
15954SOL    HW249304   5.917   2.892   5.850  0.7454  0.9390  0.4770
15955SOL     OW49305   5.947   7.409   9.928 -0.0394 -0.0877 -0.2275
15955SOL    HW149306   5.985   7.355   9.858 -1.8435 -2.2396  0.3534
15955SOL    HW249307   6.010   7.402  10.000  0.4005 -0.3210 -0.6280
15956SOL     OW49308   0.961   7.509   3.904  0.2257 -0.0269  0.0327
15956SOL    HW149309   0.996   7.426   3.871  1.3867  0.2005  0.6110
15956SOL    HW249310   1.039   7.556   3.934 -0.6300  0.2670  1.9588
15957SOL     OW49311   6.071   3.849   4.068  0.0100  0.0531 -0.1578
15957SOL    HW149312   6.157   3.890   4.067  0.6021 -1.0908 -2.0477
15957SOL    HW249313   6.055   3.824   3.977 -1.1441 -2.1463  0.5565
15958SOL     OW49314   0.678   3.924  10.856 -0.0381 -0.3863  0.3452
15958SOL    HW149315   0.697   3.875  10.936  0.9353 -1.2451 -0.3788
15958SOL    HW249316   0.744   3.994  10.856 -0.7672  0.3252  0.8494
15959SOL     OW49317   5.733   6.415   5.873  0.1174 -0.1122  0.5182
15959SOL    HW149318   5.669   6.354   5.835  0.5204 -0.8734  1.0276
15959SOL    HW249319   5.818   6.375   5.854  0.4172  0.5448  0.4449
15960SOL     OW49320   2.301   0.896   9.259 -0.2653 -0.0648 -0.0848
15960SOL    HW149321   2.273   0.986   9.241  0.6125  0.3474  0.5202
15960SOL    HW249322   2.368   0.878   9.193 -0.2463 -0.1736 -0.0358
15961SOL     OW49323   6.612   5.356  11.128 -0.0881  0.1693 -0.6555
15961SOL    HW149324   6.539   5.352  11.190  1.3218  1.2689  1.1599
15961SOL    HW249325   6.570   5.352  11.042 -2.1750 -0.5395  0.3273
15962SOL     OW49326   3.430   1.814   3.393  0.2141 -0.4764 -0.4242
15962SOL    HW149327   3.428   1.880   3.463 -0.6932  0.0775 -0.9570
15962SOL    HW249328   3.477   1.740   3.431 -2.7123 -1.3402  1.7814
15963SOL     OW49329   7.574   4.540   6.510 -0.0768  0.1213  0.1775
15963SOL    HW149330   7.556   4.614   6.568  1.4736 -0.8342  1.9688
15963SOL    HW249331   7.493   4.489   6.511 -0.4250  0.6714  0.6766
15964SOL     OW49332   1.638   1.863   6.614 -0.1982  0.2043 -0.5867
15964SOL    HW149333   1.601   1.793   6.668 -0.6499  0.3354 -0.7196
15964SOL    HW249334   1.729   1.837   6.600  0.3563  0.8983  1.4507
15965SOL     OW49335   1.426   5.870   4.140 -0.2962 -0.2232 -0.2811
15965SOL    HW149336   1.449   5.875   4.232 -4.3699  1.7095  0.8362
15965SOL    HW249337   1.410   5.960   4.113 -1.5749 -0.9439 -2.1649
15966SOL     OW49338   7.742   4.707   3.348  0.1467  0.0497 -0.0651
15966SOL    HW149339   7.696   4.704   3.432 -0.2757 -0.5614 -0.3044
15966SOL    HW249340   7.734   4.798   3.320 -0.6890  0.0231  0.0391
15967SOL     OW49341   6.647   7.428   3.482  0.5314 -0.5421  0.1685
15967SOL    HW149342   6.666   7.515   3.446  0.1735 -0.3981  0.3241
15967SOL    HW249343   6.611   7.379   3.409  0.3545 -0.4321  0.1802
15968SOL     OW49344   5.226   5.310   4.887  0.4740  0.0257  0.3596
15968SOL    HW149345   5.260   5.399   4.889  0.2434  0.1479 -0.6223
15968SOL    HW249346   5.196   5.294   4.977 -0.1411  1.1939  0.3909
15969SOL     OW49347   0.101   3.419   2.100  0.2811  0.2760 -0.2103
15969SOL    HW149348   0.013   3.453   2.117  0.4614  0.3482  0.6274
15969SOL    HW249349   0.128   3.459   2.018 -0.6559 -0.1129 -0.7226
15970SOL     OW49350   7.534   2.202   5.911  0.5191  0.0266 -0.2536
15970SOL    HW149351   7.597   2.143   5.954 -0.8449 -1.2473  0.0804
15970SOL    HW249352   7.528   2.278   5.969  0.3704 -0.6754  0.6712
15971SOL     OW49353   3.508   5.901   2.201  0.2645  0.2302 -0.0752
15971SOL    HW149354   3.531   5.941   2.117 -0.6418  3.0058  0.8893
15971SOL    HW249355   3.475   5.814   2.178 -0.1866  0.9902 -2.6047
15972SOL     OW49356   4.243   7.683   8.572  0.3275  0.2189 -0.0980
15972SOL    HW149357   4.199   7.683   8.657 -0.9725 -1.2437 -0.7239
15972SOL    HW249358   4.335   7.672   8.592  0.0464 -0.0588  1.1217
15973SOL     OW49359   5.924   2.256   4.451 -0.3806 -0.2414  0.0225
15973SOL    HW149360   5.919   2.270   4.357  1.0150 -0.8013 -0.1629
15973SOL    HW249361   5.860   2.316   4.488 -0.7606  0.1732 -1.2631
15974SOL     OW49362   0.634   4.758   6.505 -0.3163 -0.3671 -0.7231
15974SOL    HW149363   0.729   4.745   6.513  0.0116  0.6695 -2.3629
15974SOL    HW249364   0.614   4.732   6.415 -0.9436  2.6480 -1.5635
15975SOL     OW49365   4.918   0.526   1.627 -0.0202 -0.1732  0.2287
15975SOL    HW149366   4.928   0.553   1.536  1.2819 -0.9813  0.1032
15975SOL    HW249367   4.917   0.430   1.623 -1.7494 -0.2249  0.9140
15976SOL     OW49368   3.892   5.835   2.791 -0.0519 -0.0817  0.7963
15976SOL    HW149369   3.915   5.751   2.752 -1.2840  0.6041 -1.6329
15976SOL    HW249370   3.805   5.821   2.829  0.7732 -0.5037  2.6596
15977SOL     OW49371   5.629   3.015   3.977  0.3058  0.0284  0.2222
15977SOL    HW149372   5.554   3.072   3.996 -0.2185  0.2316 -2.1189
15977SOL    HW249373   5.698   3.075   3.948  0.5579 -0.3260  0.0823
15978SOL     OW49374   6.995   7.784  12.447 -0.0159 -0.1270 -0.0244
15978SOL    HW149375   6.921   7.766  12.506 -1.1554  2.6075 -0.4468
15978SOL    HW249376   7.067   7.806  12.505 -0.3715 -0.0094  0.3773
15979SOL     OW49377   2.723   2.599   7.687  0.2920 -0.1925 -0.5137
15979SOL    HW149378   2.779   2.555   7.751 -0.7905  0.1292  0.7000
15979SOL    HW249379   2.725   2.691   7.714 -0.1819 -0.0581 -0.9377
15980SOL     OW49380   0.621   1.853   5.348 -0.2831  0.0916  0.0079
15980SOL    HW149381   0.698   1.892   5.305  0.0832  0.1856  0.7363
15980SOL    HW249382   0.605   1.772   5.298 -0.8117  0.9495 -1.2634
15981SOL     OW49383   5.567   6.875   9.532 -0.5152  0.0355  0.3196
15981SOL    HW149384   5.569   6.968   9.555  0.0313  0.9011 -2.8034
15981SOL    HW249385   5.656   6.844   9.549 -0.5080  0.2635  0.6996
15982SOL     OW49386   2.962   2.816  10.704  0.2401  0.0096  0.3758
15982SOL    HW149387   2.913   2.801  10.623  1.1559  2.9243 -0.8419
15982SOL    HW249388   3.025   2.744  10.707 -0.7449 -0.9570 -0.6881
15983SOL     OW49389   6.775   7.284   0.148  1.0166 -0.1876 -0.6193
15983SOL    HW149390   6.740   7.235   0.074  0.9391 -3.5655  1.4591
15983SOL    HW249391   6.867   7.258   0.153  1.5872  1.6503 -0.7008
15984SOL     OW49392   6.683   3.850   5.269 -0.2009  0.4917  0.1621
15984SOL    HW149393   6.654   3.881   5.183 -0.8815  1.0519  0.5902
15984SOL    HW249394   6.772   3.816   5.253  0.7307  2.9547 -0.2572
15985SOL     OW49395   7.420   4.283   4.173 -0.2022  0.1184  0.0037
15985SOL    HW149396   7.464   4.346   4.230 -1.1071  1.0737 -0.3239
15985SOL    HW249397   7.336   4.266   4.215 -1.4799  1.8760 -1.6311
15986SOL     OW49398   0.435   3.248   0.761 -0.0001 -0.0612 -0.3754
15986SOL    HW149399   0.405   3.210   0.678 -0.0981 -1.6671  0.3682
15986SOL    HW249400   0.369   3.314   0.783  0.2543  0.7140 -1.7669
15987SOL     OW49401   5.179   0.282   7.741 -0.0466  0.3519  0.7272
15987SOL    HW149402   5.132   0.235   7.810 -1.0807  0.5799  0.2083
15987SOL    HW249403   5.126   0.361   7.725 -0.4689 -0.2429 -1.0859
15988SOL     OW49404   2.555   5.099   8.012  0.3048 -0.9446 -0.5415
15988SOL    HW149405   2.560   5.117   7.918  1.6785 -0.9544 -0.4915
15988SOL    HW249406   2.629   5.147   8.049  0.1871 -1.5002  0.4458
15989SOL     OW49407   7.087   4.355   6.205 -0.0021 -0.0150  0.2855
15989SOL    HW149408   7.112   4.329   6.293 -0.0826  0.1076  0.3453
15989SOL    HW249409   7.169   4.378   6.162 -0.0772  1.1070  0.7160
15990SOL     OW49410   0.328   5.799   8.100 -0.0236  0.2710 -0.2130
15990SOL    HW149411   0.237   5.800   8.128 -0.3631  0.0448 -1.2647
15990SOL    HW249412   0.372   5.743   8.164 -0.8648 -0.6072 -0.3808
15991SOL     OW49413   5.167   3.998   9.377  0.7966 -0.2292 -0.8417
15991SOL    HW149414   5.258   3.995   9.348  1.3473 -1.8471  0.8883
15991SOL    HW249415   5.171   4.017   9.470 -0.7246  0.9869 -0.9884
15992SOL     OW49416   1.122   2.952   0.240  0.1003 -0.4164 -0.1342
15992SOL    HW149417   1.217   2.940   0.239  0.2871  0.9100 -1.1319
15992SOL    HW249418   1.090   2.889   0.175  0.3434 -0.5837 -0.0932
15993SOL     OW49419   0.604   3.978   8.302  0.2585  0.1032  0.0850
15993SOL    HW149420   0.660   4.015   8.233 -1.3672  1.3473 -0.6407
15993SOL    HW249421   0.634   4.021   8.382  0.8584  0.1686 -0.1673
15994SOL     OW49422   4.821   3.909   9.031  0.0086  0.5143  0.2762
15994SOL    HW149423   4.742   3.908   9.085 -0.3354  1.2829 -0.2089
15994SOL    HW249424   4.885   3.957   9.083 -0.9316  3.0984 -0.8013
15995SOL     OW49425   0.606   1.360  10.592 -0.2647  0.2860 -0.5383
15995SOL    HW149426   0.585   1.278  10.638  1.7758  0.3414  0.6186
15995SOL    HW249427   0.650   1.331  10.511 -0.4392  0.2244 -0.6114
15996SOL     OW49428   5.703   5.715  11.375  0.1170  0.0032 -0.2599
15996SOL    HW149429   5.617   5.674  11.366  0.2339 -0.6476  1.2495
15996SOL    HW249430   5.689   5.787  11.436  0.6807 -0.2425  0.1685
15997SOL     OW49431   3.008   5.509  11.236  0.2392 -0.8412 -0.2969
15997SOL    HW149432   3.011   5.437  11.300 -1.6910  0.4368  1.3435
15997SOL    HW249433   2.942   5.481  11.173 -1.4618 -0.0357  1.0538
15998SOL     OW49434   5.280   0.654  10.678 -0.3144 -0.3384 -0.1292
15998SOL    HW149435   5.318   0.686  10.760 -1.0294  2.8639 -0.9182
15998SOL    HW249436   5.187   0.643  10.698 -0.1901 -1.2811 -0.0562
15999SOL     OW49437   7.080   2.217   7.040  0.0316 -0.4890 -0.2557
15999SOL    HW149438   7.014   2.253   7.098  0.4950 -2.1427  1.3746
15999SOL    HW249439   7.108   2.292   6.986 -1.3515  0.7845  0.7315
16000SOL     OW49440   3.853   4.388   3.398  0.3958  0.2504 -0.1818
16000SOL    HW149441   3.945   4.374   3.375 -0.1870 -1.5420 -1.6864
16000SOL    HW249442   3.820   4.301   3.418 -1.5731  0.4573 -2.1339
16001SOL     OW49443   1.691   4.075   3.836 -0.3012  0.5342  0.2275
16001SOL    HW149444   1.611   4.125   3.850 -2.5846 -2.6958 -0.0526
16001SOL    HW249445   1.693   4.012   3.909  0.2936 -1.3682 -1.3386
16002SOL     OW49446   6.838   5.495  12.216  0.1436  0.5405 -0.4846
16002SOL    HW149447   6.933   5.508  12.209  0.1694  0.2102 -0.7823
16002SOL    HW249448   6.820   5.420  12.160 -0.2822  0.5374 -0.3474
16003SOL     OW49449   7.121   6.278   3.928 -0.1689 -0.6730 -0.0023
16003SOL    HW149450   7.173   6.286   4.008 -0.1699  0.9428 -0.1225
16003SOL    HW249451   7.041   6.326   3.947 -0.6476 -1.2276 -0.5928
16004SOL     OW49452   7.253   7.453  11.327  0.0542  0.0063 -0.0869
16004SOL    HW149453   7.305   7.425  11.403  1.2998  0.3001 -0.7925
16004SOL    HW249454   7.223   7.371  11.288  0.8899 -0.2369 -0.2533
16005SOL     OW49455   3.645   0.259   4.668 -0.4381 -0.0777  0.3669
16005SOL    HW149456   3.714   0.297   4.614 -0.0136  0.5041  1.3031
16005SOL    HW249457   3.686   0.247   4.754 -1.4057 -0.0521  0.8379
16006SOL     OW49458   4.318   1.018   7.223  0.3780 -0.2313 -0.2717
16006SOL    HW149459   4.321   0.931   7.262 -1.5350 -0.3395 -0.2620
16006SOL    HW249460   4.251   1.012   7.155 -1.5235  1.7830  1.2744
16007SOL     OW49461   2.995   4.989   7.384  0.3579 -0.1867 -0.0380
16007SOL    HW149462   2.951   4.997   7.299 -1.6789  2.2690  1.1401
16007SOL    HW249463   2.966   4.904   7.419  0.8889 -1.0310 -1.5320
16008SOL     OW49464   7.958   0.812   8.878 -0.0650 -0.4752  0.4774
16008SOL    HW149465   7.898   0.810   8.953  1.1067  0.4241  1.4882
16008SOL    HW249466   7.937   0.733   8.829 -0.3072 -1.5745  2.2378
16009SOL     OW49467   1.094   6.307   6.218  0.3357 -0.3073  0.2518
16009SOL    HW149468   1.064   6.285   6.130  2.3867  1.8686 -1.1341
16009SOL    HW249469   1.051   6.389   6.239  0.2445 -0.5568  1.0758
16010SOL     OW49470   1.778   0.283   9.110 -0.7955 -0.0073  0.6322
16010SOL    HW149471   1.830   0.203   9.107  0.1472  0.6034 -1.0478
16010SOL    HW249472   1.700   0.263   9.059 -0.8931 -0.0947  0.8196
16011SOL     OW49473   2.087   0.767   1.950  0.0184 -0.3574 -0.2492
16011SOL    HW149474   2.109   0.676   1.931 -0.3465 -0.6566  0.7250
16011SOL    HW249475   2.172   0.813   1.945  0.7952 -1.3264  2.4333
16012SOL     OW49476   0.196   0.717   4.085 -0.2807 -0.4590  0.1882
16012SOL    HW149477   0.111   0.734   4.126 -0.3487  1.2660 -0.6028
16012SOL    HW249478   0.259   0.740   4.153 -0.4285  0.5391  0.0066
16013SOL     OW49479   0.419   5.928   2.651 -0.4590  0.8010 -0.2120
16013SOL    HW149480   0.449   5.950   2.563 -0.1691 -0.3810 -0.4130
16013SOL    HW249481   0.336   5.976   2.660 -0.2946  1.2431 -0.9721
16014SOL     OW49482   1.459   4.304   1.383 -0.0134  0.0358  0.9458
16014SOL    HW149483   1.384   4.344   1.338  0.2288 -1.2004 -0.6549
16014SOL    HW249484   1.522   4.288   1.313  0.7060 -1.2925  1.8665
16015SOL     OW49485   1.598   0.480   5.409  0.2612  0.4131  0.2174
16015SOL    HW149486   1.527   0.541   5.430  0.8622  1.1941  0.0375
16015SOL    HW249487   1.565   0.394   5.438 -1.3066  0.5151 -1.0796
16016SOL     OW49488   0.062   6.079  11.886 -0.5324 -0.0171  0.1497
16016SOL    HW149489   0.100   6.043  11.966 -0.5781 -1.1442 -0.3119
16016SOL    HW249490  -0.024   6.037  11.879 -0.1643 -0.6485 -0.9413
16017SOL     OW49491   2.894   5.162   6.563  0.0495 -0.1510 -0.1697
16017SOL    HW149492   2.907   5.256   6.553  2.7966 -0.4935 -0.4144
16017SOL    HW249493   2.889   5.149   6.658  0.1002  0.1666 -0.1218
16018SOL     OW49494   5.679   5.688   7.454 -0.1944 -0.1522  0.1036
16018SOL    HW149495   5.662   5.759   7.517 -2.8370 -1.1994  0.7024
16018SOL    HW249496   5.704   5.614   7.508 -0.7110 -0.5644 -0.2114
16019SOL     OW49497   4.564   5.142   5.769 -0.0895 -0.4389  0.2119
16019SOL    HW149498   4.494   5.201   5.742  0.6762  1.3033  1.8354
16019SOL    HW249499   4.632   5.152   5.703 -0.3896 -0.3287 -0.0820
16020SOL     OW49500   4.922   5.695  11.047  0.4837 -0.3216  0.3795
16020SOL    HW149501   5.012   5.663  11.038  1.0542  1.3879 -0.5487
16020SOL    HW249502   4.903   5.737  10.963 -0.6600  0.6039  1.0698
16021SOL     OW49503   4.548   3.251   6.006  0.5197  0.0163 -0.0438
16021SOL    HW149504   4.618   3.307   5.972  1.8163 -0.0969  2.1840
16021SOL    HW249505   4.526   3.290   6.090 -1.4073 -0.5711 -0.2434
16022SOL     OW49506   0.236   3.536   2.326  0.5506 -0.5041 -0.5439
16022SOL    HW149507   0.198   3.617   2.360 -0.6581 -0.8073 -1.1014
16022SOL    HW249508   0.170   3.503   2.265  1.2689 -1.6251 -0.7394
16023SOL     OW49509   3.486   4.426   5.451 -0.5135 -0.4044  0.3167
16023SOL    HW149510   3.472   4.451   5.542 -0.1863 -0.0945  0.2816
16023SOL    HW249511   3.465   4.504   5.400 -0.2766 -0.4462  0.1527
16024SOL     OW49512   4.529   4.207  10.647  0.0930  0.1130  0.6665
16024SOL    HW149513   4.504   4.283  10.700  2.4009  0.1538  1.8269
16024SOL    HW249514   4.562   4.246  10.566  0.5818  0.3244  0.9604
16025SOL     OW49515   7.665   3.754   7.454  0.4749 -0.0232  0.4247
16025SOL    HW149516   7.723   3.684   7.425 -0.4253 -0.4401 -0.4195
16025SOL    HW249517   7.697   3.832   7.410 -0.3922 -0.5025 -1.1468
16026SOL     OW49518   4.365   3.785  10.075  0.1391 -0.3360  0.1323
16026SOL    HW149519   4.450   3.782  10.031  1.7595 -1.4422  3.0476
16026SOL    HW249520   4.333   3.873  10.059  1.3217 -0.2204 -1.9222
16027SOL     OW49521   4.358   7.509  11.764 -0.0042  0.2465 -0.2764
16027SOL    HW149522   4.444   7.468  11.773 -0.1404 -0.0609 -0.3284
16027SOL    HW249523   4.303   7.439  11.729 -0.3656  0.3280  0.1207
16028SOL     OW49524   4.670   2.046   5.514  0.0944 -0.4018 -0.3388
16028SOL    HW149525   4.722   2.045   5.434  1.0093 -0.0863  0.2331
16028SOL    HW249526   4.682   2.135   5.550  0.1217 -0.6972  0.4086
16029SOL     OW49527   6.684   1.023   7.513  1.0039  0.0803 -0.4673
16029SOL    HW149528   6.686   1.104   7.563  0.0252  0.3006 -0.7720
16029SOL    HW249529   6.699   0.954   7.578 -0.4632  0.3494  0.1828
16030SOL     OW49530   4.642   1.463   8.468 -0.0202 -0.3836  0.5709
16030SOL    HW149531   4.639   1.555   8.496  1.1790 -0.2395  0.2772
16030SOL    HW249532   4.632   1.413   8.549 -0.9128 -0.0082  0.7055
16031SOL     OW49533   3.792   7.108   8.133 -0.1978  0.0464 -0.3242
16031SOL    HW149534   3.749   7.193   8.122 -0.9009 -0.3504 -0.6625
16031SOL    HW249535   3.763   7.078   8.219  0.6760  0.4920  0.1452
16032SOL     OW49536   4.212   6.238   0.534 -0.6367 -0.0550  0.5187
16032SOL    HW149537   4.118   6.242   0.549 -0.5425  0.3268  1.0318
16032SOL    HW249538   4.223   6.273   0.446 -0.7428  2.4858  1.4298
16033SOL     OW49539   0.018   6.754   0.501 -0.7331  0.1882  0.0901
16033SOL    HW149540  -0.068   6.764   0.460 -2.1810  0.5511  2.9856
16033SOL    HW249541   0.009   6.797   0.586  2.0459 -0.5595  0.8439
16034SOL     OW49542   3.718   7.644   6.563  0.4447 -0.2678 -0.2500
16034SOL    HW149543   3.778   7.604   6.625  0.0496  0.2658  0.4973
16034SOL    HW249544   3.674   7.713   6.613  0.2447  0.2967 -1.1702
16035SOL     OW49545   1.519   7.106   7.592 -0.1204 -0.2378  0.2462
16035SOL    HW149546   1.476   7.185   7.559 -0.1713 -0.4474 -0.1971
16035SOL    HW249547   1.476   7.034   7.545 -0.1670 -0.5395  0.7461
16036SOL     OW49548   0.666   1.498   2.482 -0.0896  0.5098  0.3249
16036SOL    HW149549   0.627   1.584   2.499 -1.0522  0.8749 -3.1117
16036SOL    HW249550   0.735   1.514   2.417 -0.3669 -1.3059 -0.4899
16037SOL     OW49551   4.977   7.796  12.406 -0.0924  0.0508 -0.3090
16037SOL    HW149552   4.942   7.710  12.383 -0.4268  0.0410  0.2389
16037SOL    HW249553   4.947   7.853  12.335  0.8536 -0.4403 -1.1394
16038SOL     OW49554   0.341   0.496   1.189 -0.4436 -0.5455 -0.1449
16038SOL    HW149555   0.326   0.479   1.282  1.4397 -0.2584  0.2469
16038SOL    HW249556   0.375   0.585   1.186 -1.6091 -0.0957 -1.2657
16039SOL     OW49557   1.920   6.107   4.587 -0.0046 -0.1165  0.3996
16039SOL    HW149558   1.945   6.197   4.568  0.7260 -0.8267 -2.4474
16039SOL    HW249559   1.825   6.110   4.599 -0.3395  0.7412 -2.0571
16040SOL     OW49560   3.369   1.328   2.770  0.0861  0.0203  0.3563
16040SOL    HW149561   3.392   1.258   2.831 -0.5213  0.4379  1.0688
16040SOL    HW249562   3.450   1.379   2.760  0.1269  0.0802  0.9802
16041SOL     OW49563   7.436   1.194  12.197  0.1637  0.1453 -0.2045
16041SOL    HW149564   7.443   1.196  12.293 -1.1976 -1.5064 -0.0374
16041SOL    HW249565   7.433   1.287  12.172  0.9677  0.6186  1.2964
16042SOL     OW49566   7.386   5.478   0.747 -0.1377 -0.0363 -0.1499
16042SOL    HW149567   7.466   5.503   0.702 -0.1743  0.4934  0.0668
16042SOL    HW249568   7.336   5.427   0.683 -0.0790  0.4923 -0.6159
16043SOL     OW49569   3.721   5.027   7.868 -0.3172 -0.3135 -0.0129
16043SOL    HW149570   3.686   5.110   7.837  1.1290  0.9670  1.5914
16043SOL    HW249571   3.737   4.976   7.789 -0.0004  1.4696 -1.1437
16044SOL     OW49572   1.142   6.068   7.088 -0.5097 -0.2403 -0.7259
16044SOL    HW149573   1.104   6.004   7.148  1.7215 -0.3150  0.7308
16044SOL    HW249574   1.236   6.063   7.105  0.0017  1.2604 -2.7787
16045SOL     OW49575   0.662   2.589  12.385 -0.2326 -0.1057  0.0310
16045SOL    HW149576   0.749   2.572  12.349 -0.7960  0.9883 -1.9815
16045SOL    HW249577   0.632   2.668  12.340 -3.2239 -1.7477 -1.1209
16046SOL     OW49578   1.705   3.195   3.676  0.0600 -0.4567 -0.0236
16046SOL    HW149579   1.622   3.238   3.700  0.3990  0.0641  0.2536
16046SOL    HW249580   1.757   3.199   3.756  1.5284  2.0308 -0.9741
16047SOL     OW49581   1.492   3.211   1.126 -0.0232 -0.0868 -0.3144
16047SOL    HW149582   1.512   3.153   1.199  0.2123  1.1062  0.5982
16047SOL    HW249583   1.531   3.295   1.150 -0.3451  0.4626 -1.5980
16048SOL     OW49584   3.082   6.592   4.496  0.3266 -1.0730  0.2095
16048SOL    HW149585   3.095   6.544   4.415  1.6282 -0.5666  0.0872
16048SOL    HW249586   3.154   6.564   4.553  0.1652 -0.4957  0.7204
16049SOL     OW49587   0.837   2.828   3.715  0.0824 -0.5101  0.8000
16049SOL    HW149588   0.783   2.880   3.655 -0.4452 -3.0798 -1.1485
16049SOL    HW249589   0.788   2.747   3.728  1.3564 -1.0380  2.7977
16050SOL     OW49590   2.521   4.702   9.109 -0.0358  0.5557 -0.1075
16050SOL    HW149591   2.563   4.639   9.168 -1.4326 -0.1733  0.1409
16050SOL    HW249592   2.440   4.661   9.083 -0.8458  2.1240 -0.2019
16051SOL     OW49593   3.647   1.802  10.707  0.0825 -0.4710  0.0615
16051SOL    HW149594   3.716   1.745  10.742  0.6003 -0.7197 -1.2985
16051SOL    HW249595   3.590   1.819  10.782  0.3419 -2.1520  0.6894
16052SOL     OW49596   2.188   3.268  10.827 -0.5731 -0.0920 -0.1817
16052SOL    HW149597   2.208   3.360  10.810  1.7876 -0.4330  0.4042
16052SOL    HW249598   2.123   3.270  10.898  1.9908  1.1838  2.3254
16053SOL     OW49599   5.583   0.156   9.273 -0.2868  0.1042  0.1676
16053SOL    HW149600   5.584   0.088   9.340 -1.1527  0.2153  0.3033
16053SOL    HW249601   5.518   0.126   9.209 -1.8270  1.4929  0.9870
16054SOL     OW49602   2.025   4.242   2.128  0.1615 -0.5311 -0.0409
16054SOL    HW149603   1.933   4.247   2.153  0.2602  0.5979  0.1172
16054SOL    HW249604   2.024   4.204   2.040 -0.5768  0.9294 -0.6979
16055SOL     OW49605   6.286   1.780   9.628  0.3231 -0.6516  0.1648
16055SOL    HW149606   6.318   1.866   9.656 -0.0122  0.3971 -2.4030
16055SOL    HW249607   6.193   1.795   9.610 -0.8163 -2.6228  3.4640
16056SOL     OW49608   1.385   1.728   9.505  0.7250  0.3859 -0.3856
16056SOL    HW149609   1.359   1.636   9.513  0.2458  0.4811 -0.7577
16056SOL    HW249610   1.469   1.734   9.550  1.1670 -0.4201 -1.0759
16057SOL     OW49611   4.847   0.926  10.957 -0.1547  0.1235 -0.2151
16057SOL    HW149612   4.861   1.017  10.982 -0.8006 -0.0629  0.8960
16057SOL    HW249613   4.922   0.879  10.993  0.2821  0.2278 -0.9600
16058SOL     OW49614   3.826   0.970   0.835 -0.1063  0.1906 -0.1683
16058SOL    HW149615   3.732   0.951   0.831 -0.3428  1.0401  0.9254
16058SOL    HW249616   3.854   0.967   0.744 -1.4018  0.9088 -0.6288
16059SOL     OW49617   3.954   4.409   7.966 -0.2126  0.3868  0.0735
16059SOL    HW149618   3.897   4.368   8.031 -0.2565 -0.8336 -0.7124
16059SOL    HW249619   4.042   4.403   8.004 -0.5796  2.3750  1.3380
16060SOL     OW49620   7.858   7.689   2.052  0.0692 -0.3459  0.1891
16060SOL    HW149621   7.822   7.683   2.140  0.2279  1.0882  0.3757
16060SOL    HW249622   7.794   7.644   1.996 -2.5771  2.8129  0.3740
16061SOL     OW49623   2.587   6.552   9.271  0.1009 -0.1140 -0.1414
16061SOL    HW149624   2.521   6.583   9.209 -0.2213  1.7956  1.0690
16061SOL    HW249625   2.663   6.608   9.256  0.1633  0.1042  0.8737
16062SOL     OW49626   3.189   2.905  10.111  0.0194 -0.4922 -0.3464
16062SOL    HW149627   3.212   2.924  10.202 -0.1683 -0.8077 -0.2321
16062SOL    HW249628   3.095   2.924  10.106  0.1401  0.0644 -0.6216
16063SOL     OW49629   7.351   0.267   1.501 -0.2063 -0.0221  0.3846
16063SOL    HW149630   7.399   0.187   1.518  1.9427  0.7704 -1.3814
16063SOL    HW249631   7.394   0.305   1.424 -1.6386  2.4277  0.6680
16064SOL     OW49632   3.563   5.616   4.963  0.6013 -0.0769  0.4466
16064SOL    HW149633   3.593   5.603   4.873  0.3844  0.0126  0.3595
16064SOL    HW249634   3.616   5.556   5.015  0.0481 -0.8619  0.1270
16065SOL     OW49635   0.746   2.509   0.417  0.2691  0.8741  0.2593
16065SOL    HW149636   0.817   2.509   0.480 -1.0646 -1.1966  1.9209
16065SOL    HW249637   0.717   2.418   0.413 -1.0071  1.2900 -1.8646
16066SOL     OW49638   0.729   7.130  10.503  0.2622  0.2753  0.1108
16066SOL    HW149639   0.776   7.077  10.568  0.2360 -1.0284 -0.8883
16066SOL    HW249640   0.637   7.108  10.516  0.3536 -0.9922 -1.1823
16067SOL     OW49641   5.960   6.326  12.435 -0.0796 -0.1264 -0.3085
16067SOL    HW149642   6.035   6.278  12.399  0.0594 -0.0716 -0.0925
16067SOL    HW249643   5.958   6.408  12.386 -0.4357 -0.4333 -0.8153
16068SOL     OW49644   7.470   2.724  11.181 -0.0665 -0.2141  0.2505
16068SOL    HW149645   7.397   2.675  11.218 -1.4778  1.5274 -0.1579
16068SOL    HW249646   7.435   2.766  11.103  0.6060  2.7216  1.3996
16069SOL     OW49647   5.423   5.505   3.581 -0.3020 -0.1368 -0.2283
16069SOL    HW149648   5.513   5.499   3.611 -0.3159 -1.9699 -0.4416
16069SOL    HW249649   5.370   5.505   3.661 -0.1749 -1.1121 -0.1300
16070SOL     OW49650   2.138   1.819   1.289  0.1169 -0.4865  0.5380
16070SOL    HW149651   2.212   1.856   1.337 -0.9619  0.1598  1.7833
16070SOL    HW249652   2.152   1.725   1.292  1.2040 -0.3500  0.2003
16071SOL     OW49653   6.466   1.973   7.206  0.1317 -0.1018 -0.2385
16071SOL    HW149654   6.394   1.928   7.250  0.5601 -1.4314 -0.8244
16071SOL    HW249655   6.535   1.979   7.273 -0.2218  0.4363  0.0821
16072SOL     OW49656   5.346   6.465   0.948 -0.0776  0.4902  0.3806
16072SOL    HW149657   5.304   6.465   0.862 -2.0994 -0.4633  1.3014
16072SOL    HW249658   5.437   6.439   0.930 -0.3595  0.6535 -1.4819
16073SOL     OW49659   4.521   4.473   9.298  0.2702  0.2903 -0.2675
16073SOL    HW149660   4.556   4.426   9.222  1.3327 -0.9119  0.9190
16073SOL    HW249661   4.557   4.427   9.374 -2.4438  0.1095  1.0478
16074SOL     OW49662   0.603   5.904   0.922  0.3408  0.2356 -0.5206
16074SOL    HW149663   0.681   5.848   0.916  0.7024  0.4486  1.3497
16074SOL    HW249664   0.620   5.976   0.861  2.1845  0.8886  0.6710
16075SOL     OW49665   1.110   5.256   0.151  0.1750  0.3508  0.0039
16075SOL    HW149666   1.110   5.307   0.071 -0.5938  1.4660  0.6914
16075SOL    HW249667   1.161   5.308   0.213  3.6236 -1.9652 -0.5802
16076SOL     OW49668   2.741   5.333   2.455 -0.3939  0.2866 -0.0875
16076SOL    HW149669   2.773   5.414   2.496 -1.0727 -0.4361  1.9843
16076SOL    HW249670   2.649   5.329   2.479  0.0606 -2.0550  1.5349
16077SOL     OW49671   5.822   4.000   5.714  0.0137  0.2350 -0.4643
16077SOL    HW149672   5.873   3.975   5.637  0.1881 -1.1441  0.0627
16077SOL    HW249673   5.733   3.971   5.694 -0.4867  2.0638 -1.1171
16078SOL     OW49674   5.058   4.317   2.807 -0.5386  0.4904  0.2330
16078SOL    HW149675   4.992   4.273   2.754  2.3082 -0.4884 -2.8817
16078SOL    HW249676   5.068   4.262   2.885 -0.7769 -1.4756 -1.0566
16079SOL     OW49677   5.737   5.910   0.121  0.3829 -0.3112 -0.1691
16079SOL    HW149678   5.662   5.915   0.180 -0.4218 -0.3724 -1.1412
16079SOL    HW249679   5.777   5.996   0.125 -1.5315  0.7365 -1.8555
16080SOL     OW49680   3.817   5.130   8.093 -0.0982 -0.6258  0.3620
16080SOL    HW149681   3.776   5.108   8.009 -1.1382 -0.7116  0.8778
16080SOL    HW249682   3.767   5.206   8.125  0.1484 -0.7264  0.9973
16081SOL     OW49683   1.610   0.411  12.275  0.4279 -0.4555  0.5091
16081SOL    HW149684   1.521   0.445  12.264  0.3141 -0.6778  0.7280
16081SOL    HW249685   1.627   0.420  12.369  0.2567 -1.3284  0.6388
16082SOL     OW49686   0.031   7.960  10.794 -0.6449  0.0905 -0.0607
16082SOL    HW149687  -0.036   7.979  10.860  0.1957 -0.6962  1.0668
16082SOL    HW249688  -0.014   7.904  10.731 -1.4057  0.6639 -0.0443
16083SOL     OW49689   2.319   1.971   1.461  0.2395  0.3413  0.2044
16083SOL    HW149690   2.365   1.944   1.381 -0.9520 -0.5541 -0.2076
16083SOL    HW249691   2.388   2.006   1.517  1.2240  0.2447 -0.9016
16084SOL     OW49692   2.139   7.910   5.687  0.0333  0.2605 -0.1866
16084SOL    HW149693   2.058   7.886   5.731 -1.8902  0.3492 -3.3368
16084SOL    HW249694   2.175   7.983   5.739 -1.3385 -0.4174  1.8125
16085SOL     OW49695   5.526   7.541   9.413 -0.3834  0.2442 -0.1271
16085SOL    HW149696   5.506   7.448   9.402 -1.2575  0.4876 -0.7104
16085SOL    HW249697   5.496   7.563   9.501 -3.2541  0.7041 -1.1203
16086SOL     OW49698   2.669   2.074   1.304  0.6066  0.1108  0.3871
16086SOL    HW149699   2.713   2.143   1.254 -0.1548 -0.0979 -0.6210
16086SOL    HW249700   2.716   2.070   1.387  0.7020  1.7842  0.4339
16087SOL     OW49701   0.036   7.239   2.247  0.4911  0.7748  0.2331
16087SOL    HW149702   0.111   7.204   2.199 -1.2671 -0.9723 -1.3944
16087SOL    HW249703  -0.013   7.289   2.181 -1.3090 -0.6041  0.4503
16088SOL     OW49704   7.656   2.754   6.158  0.0540 -0.5396  0.1853
16088SOL    HW149705   7.695   2.687   6.214  0.2578 -1.8796 -1.4700
16088SOL    HW249706   7.575   2.715   6.127  1.4345 -1.2241 -2.9185
16089SOL     OW49707   7.817   5.648   9.628 -0.0316 -0.0864 -0.2527
16089SOL    HW149708   7.774   5.721   9.672  0.0751  0.4808 -1.0579
16089SOL    HW249709   7.809   5.669   9.535  1.7920 -0.0687 -0.4304
16090SOL     OW49710   4.010   2.059   0.247 -1.1083 -0.4953  0.0285
16090SOL    HW149711   3.963   2.140   0.228 -1.0338 -0.5694 -0.4857
16090SOL    HW249712   3.965   2.022   0.323 -2.5666 -1.1011 -1.0881
16091SOL     OW49713   7.685   4.982   6.960  0.0542 -0.6533 -0.1436
16091SOL    HW149714   7.778   4.983   6.940 -0.2524  0.1439 -1.7311
16091SOL    HW249715   7.669   4.896   6.998  1.7046 -0.2045  1.7773
16092SOL     OW49716   0.153   0.173   8.235  0.6630 -0.0167  0.5331
16092SOL    HW149717   0.159   0.160   8.140  0.3149  0.3051  0.4660
16092SOL    HW249718   0.169   0.086   8.272 -0.3522 -0.3867  0.1362
16093SOL     OW49719   7.584   0.620   6.977  0.5298  0.0653  0.1435
16093SOL    HW149720   7.545   0.534   6.960  0.2760 -0.2844  2.2493
16093SOL    HW249721   7.677   0.609   6.960  0.4402 -0.5332  0.0418
16094SOL     OW49722   7.317   6.089  11.612 -0.0806 -0.0405  0.0037
16094SOL    HW149723   7.347   6.118  11.698 -0.7732  1.8175 -0.3315
16094SOL    HW249724   7.342   6.161  11.553  0.0155 -1.0909 -1.2879
16095SOL     OW49725   5.140   7.346   7.094 -0.7262 -0.2230 -0.0153
16095SOL    HW149726   5.172   7.371   7.007 -1.5672  1.5610  0.1482
16095SOL    HW249727   5.206   7.286   7.127  1.5302  1.8425 -0.4659
16096SOL     OW49728   5.605   0.370  10.792  0.2635 -0.4074 -0.0160
16096SOL    HW149729   5.517   0.381  10.756 -0.6905 -1.9812  1.6790
16096SOL    HW249730   5.659   0.346  10.716 -0.8686  0.0487 -0.9949
16097SOL     OW49731   3.593   6.106  11.127 -0.5376  0.9285 -0.1483
16097SOL    HW149732   3.646   6.026  11.137 -0.7737  0.8091  0.1421
16097SOL    HW249733   3.528   6.101  11.197 -0.4103  1.4949  0.0128
16098SOL     OW49734   3.215   1.063  12.108 -0.0608  0.4487  0.1243
16098SOL    HW149735   3.225   0.981  12.156 -1.3336 -0.0644 -0.4278
16098SOL    HW249736   3.287   1.118  12.139 -0.3178 -0.1693  1.9488
16099SOL     OW49737   4.920   6.308   7.899 -0.5266  0.2421  0.6189
16099SOL    HW149738   4.990   6.360   7.939 -1.4140  1.7166  0.3574
16099SOL    HW249739   4.918   6.227   7.949  0.3771  0.8000  1.6014
16100SOL     OW49740   2.991   2.520   3.312 -0.0202  0.4711  0.0623
16100SOL    HW149741   3.021   2.559   3.230  1.1719 -2.3530 -0.9712
16100SOL    HW249742   2.902   2.490   3.294  0.0491  0.3187 -0.0283
16101SOL     OW49743   0.366   1.714   9.247  0.2241 -0.0579 -0.1027
16101SOL    HW149744   0.437   1.701   9.309 -1.2758  1.6030  2.1150
16101SOL    HW249745   0.409   1.721   9.162  2.9415  2.4789  1.3031
16102SOL     OW49746   6.756   0.685   5.078  0.3022 -1.0299  0.0976
16102SOL    HW149747   6.784   0.765   5.034  1.0757 -1.3386  0.0193
16102SOL    HW249748   6.759   0.707   5.171 -2.7484  0.0984  0.0406
16103SOL     OW49749   2.348   6.200   3.280  0.1489 -0.3640  0.6449
16103SOL    HW149750   2.262   6.240   3.268 -0.0806 -0.7765  0.9041
16103SOL    HW249751   2.331   6.106   3.282  0.5359 -0.4257  1.2661
16104SOL     OW49752   2.827   1.912  10.610 -0.3419 -0.1170  0.8758
16104SOL    HW149753   2.791   1.975  10.547  1.3215  1.5718  1.5116
16104SOL    HW249754   2.776   1.926  10.690 -0.8537 -0.5463  0.6303
16105SOL     OW49755   3.236   1.268   2.214 -0.0015  0.7385 -0.4655
16105SOL    HW149756   3.274   1.318   2.142 -0.1883 -1.0613 -1.8632
16105SOL    HW249757   3.289   1.293   2.290  2.8200 -0.2461 -1.9665
16106SOL     OW49758   4.963   7.400  11.492  0.1148  0.7112  0.0799
16106SOL    HW149759   5.050   7.430  11.466 -0.0737 -0.1227 -1.6549
16106SOL    HW249760   4.973   7.372  11.583  2.1380 -1.0367 -0.5887
16107SOL     OW49761   1.637   7.226   9.503  0.7558 -0.2499  0.1401
16107SOL    HW149762   1.543   7.204   9.502  0.6653  0.0512  0.9478
16107SOL    HW249763   1.639   7.321   9.513  1.1276 -0.3624  1.4049
16108SOL     OW49764   2.632   3.955   8.657  0.0241  0.4802 -0.0263
16108SOL    HW149765   2.674   3.972   8.741 -1.1363  0.5374  0.5646
16108SOL    HW249766   2.556   3.901   8.679  1.4329 -2.2005 -1.4095
16109SOL     OW49767   0.966   4.778   3.289 -0.5115  0.1575 -0.7634
16109SOL    HW149768   1.044   4.807   3.241 -1.1795  1.2084 -1.2471
16109SOL    HW249769   0.912   4.734   3.224  0.4963 -2.2993 -0.0290
16110SOL     OW49770   1.682   5.447   5.020  0.6725  0.3237 -0.1978
16110SOL    HW149771   1.634   5.409   5.094  0.4363 -0.3941 -0.7052
16110SOL    HW249772   1.732   5.519   5.058  1.3831 -0.6929  0.8811
16111SOL     OW49773   7.560   0.115   5.389 -0.3468 -0.9690 -0.2248
16111SOL    HW149774   7.579   0.094   5.481  0.4296  2.2174  0.4851
16111SOL    HW249775   7.641   0.155   5.357  0.0200 -3.4991 -2.9476
16112SOL     OW49776   0.904   6.296  10.190  0.4402  0.7387 -0.3478
16112SOL    HW149777   0.908   6.323  10.281 -0.4588  0.3016 -0.1665
16112SOL    HW249778   0.952   6.213  10.187 -0.1914  0.3566 -0.1062
16113SOL     OW49779   4.729   6.353  10.692 -0.5669 -0.3799 -0.0408
16113SOL    HW149780   4.636   6.329  10.687 -0.8910  0.9379 -0.9152
16113SOL    HW249781   4.728   6.448  10.705  0.6609 -0.4989  1.1595
16114SOL     OW49782   5.688   6.523  10.800 -0.2706 -0.1175 -0.1993
16114SOL    HW149783   5.659   6.574  10.725 -0.2630  0.4088  0.1475
16114SOL    HW249784   5.624   6.452  10.807 -0.7638  0.3117 -0.2024
16115SOL     OW49785   5.117   4.212   3.060  0.3655  0.4434  0.5477
16115SOL    HW149786   5.066   4.239   3.136  0.3813 -0.0976  0.7573
16115SOL    HW249787   5.200   4.257   3.068 -0.0497  1.2727  0.2485
16116SOL     OW49788   4.964   2.802   3.502 -0.0113  0.3692 -0.2153
16116SOL    HW149789   4.895   2.867   3.515  0.8320  0.8884  2.0350
16116SOL    HW249790   4.930   2.722   3.541  0.2141  0.3221 -0.1142
16117SOL     OW49791   7.057   2.444   9.774  0.2678  0.0913  0.2554
16117SOL    HW149792   7.102   2.495   9.707 -0.1922  0.1202 -0.0381
16117SOL    HW249793   7.052   2.502   9.850  1.4996 -0.2205  0.5986
16118SOL     OW49794   6.955   7.430   5.190 -0.1598 -0.0951 -0.1359
16118SOL    HW149795   6.873   7.477   5.174 -1.5463 -2.0406  0.8305
16118SOL    HW249796   6.976   7.388   5.107 -0.5742 -0.2206 -0.1766
16119SOL     OW49797   0.659   0.031   4.629  0.0481 -0.1813 -0.4225
16119SOL    HW149798   0.732   0.069   4.678 -0.0125 -0.9810  0.3157
16119SOL    HW249799   0.614   0.106   4.590  1.0610  0.3469 -0.6172
16120SOL     OW49800   7.774   3.893   9.655  0.3069 -0.1694 -1.0134
16120SOL    HW149801   7.779   3.839   9.735  0.8204  0.4291 -0.6294
16120SOL    HW249802   7.794   3.981   9.685 -0.3105  0.2028 -1.6768
16121SOL     OW49803   5.162   3.899   5.992  0.0168 -0.1406 -0.1768
16121SOL    HW149804   5.214   3.970   5.952  1.5754 -0.4549  1.1919
16121SOL    HW249805   5.094   3.944   6.042  0.5633  0.3764  0.1124
16122SOL     OW49806   0.992   4.390   6.401 -0.5860  0.2961  0.3749
16122SOL    HW149807   0.907   4.351   6.420 -1.4672  1.9297 -0.0321
16122SOL    HW249808   0.975   4.451   6.329  0.7650  1.2265  0.8048
16123SOL     OW49809   4.300   6.825   4.218 -0.1495 -0.3995 -0.2287
16123SOL    HW149810   4.382   6.839   4.265  1.8918 -0.0553 -3.5467
16123SOL    HW249811   4.297   6.730   4.204  0.9607 -0.2442 -1.9491
16124SOL     OW49812   6.830   7.304   0.799 -0.4721 -0.1731 -0.0293
16124SOL    HW149813   6.797   7.312   0.888 -2.8105 -1.1031 -0.7329
16124SOL    HW249814   6.759   7.337   0.744 -0.6098 -2.9255 -1.6936
16125SOL     OW49815   0.228   5.776   4.505 -0.2321 -0.4763 -0.3302
16125SOL    HW149816   0.266   5.862   4.523 -0.4275 -0.3423 -0.5413
16125SOL    HW249817   0.295   5.713   4.531  0.4331 -0.2268 -1.3776
16126SOL     OW49818   0.384   3.605  11.691  0.3725 -0.0537 -0.0711
16126SOL    HW149819   0.435   3.686  11.699  0.0193  0.1977 -0.3279
16126SOL    HW249820   0.349   3.590  11.779 -0.6204  0.7862 -0.2989
16127SOL     OW49821   7.403   6.315   1.629 -0.6825  0.2908 -0.5405
16127SOL    HW149822   7.349   6.269   1.693 -2.1407  2.7121  0.1000
16127SOL    HW249823   7.397   6.407   1.654  1.6300  0.9386 -2.0651
16128SOL     OW49824   0.246   7.479   5.220  0.5448  0.5156  1.2234
16128SOL    HW149825   0.176   7.425   5.256  0.9442  0.3529  1.7717
16128SOL    HW249826   0.271   7.537   5.292 -0.0359  1.6064  0.5805
16129SOL     OW49827   6.422   1.876   6.103  1.1516  0.2390  0.0680
16129SOL    HW149828   6.391   1.939   6.168 -4.0663 -1.0209 -0.7320
16129SOL    HW249829   6.424   1.925   6.021  1.6826  0.3807  0.1593
16130SOL     OW49830   7.062   2.836   1.145 -0.1690  0.1482 -0.0647
16130SOL    HW149831   7.021   2.908   1.193  0.5225  1.0960 -0.8638
16130SOL    HW249832   7.062   2.863   1.054  2.4361  0.3544 -0.0988
16131SOL     OW49833   7.112   7.040   1.959 -0.0225  0.4060 -0.0923
16131SOL    HW149834   7.028   7.000   1.936  0.3844 -1.2111  1.0698
16131SOL    HW249835   7.091   7.103   2.029 -0.1953 -0.5955  0.7847
16132SOL     OW49836   5.466   7.272   6.716  0.4030  0.0377 -0.4668
16132SOL    HW149837   5.518   7.252   6.638 -1.2430 -1.2138 -1.3342
16132SOL    HW249838   5.423   7.189   6.738 -0.1476  0.6759  1.0304
16133SOL     OW49839   7.471   6.601  11.306  0.1582  0.0305 -0.4586
16133SOL    HW149840   7.478   6.531  11.242  0.9030  0.4104 -0.8034
16133SOL    HW249841   7.411   6.567  11.373 -0.7883 -0.2985 -1.4398
16134SOL     OW49842   5.800   4.616   8.024 -0.0528 -0.0957 -0.4949
16134SOL    HW149843   5.793   4.612   8.119 -3.3572  0.8359 -0.5962
16134SOL    HW249844   5.849   4.537   8.000  1.1941 -0.1527  1.9276
16135SOL     OW49845   1.721   1.545   8.231 -0.5220 -0.6012 -0.1390
16135SOL    HW149846   1.733   1.510   8.143  0.2059  0.4930 -0.4911
16135SOL    HW249847   1.763   1.630   8.229 -2.7104  0.5699  0.5273
16136SOL     OW49848   2.327   0.091   1.011 -0.3347 -0.8619 -0.6071
16136SOL    HW149849   2.420   0.094   1.034 -0.1973  1.7272 -1.2255
16136SOL    HW249850   2.284   0.055   1.088  0.9428  0.1555  0.6264
16137SOL     OW49851   7.741   4.317   1.451 -0.1627  0.2626 -0.2264
16137SOL    HW149852   7.688   4.345   1.376 -0.1914  1.0092  0.0589
16137SOL    HW249853   7.828   4.353   1.434  0.1411 -0.5719 -0.4698
16138SOL     OW49854   2.346   7.453   7.928 -0.7845 -0.4771  0.2133
16138SOL    HW149855   2.311   7.535   7.892 -0.3445  0.0507  0.9558
16138SOL    HW249856   2.281   7.387   7.905 -2.4801  0.5113  1.8712
16139SOL     OW49857   7.839   7.077   5.562 -0.2120 -0.0985  0.1178
16139SOL    HW149858   7.824   7.114   5.475 -0.9484  0.6011  0.5238
16139SOL    HW249859   7.864   6.986   5.547  0.6097  0.2758 -0.8672
16140SOL     OW49860   5.842   4.726   0.627 -0.1031 -0.0559 -0.2321
16140SOL    HW149861   5.771   4.771   0.581  1.4599  1.7465 -1.0361
16140SOL    HW249862   5.842   4.765   0.714 -1.5988 -1.8288  0.6298
16141SOL     OW49863   6.810   0.115   6.071 -0.1821  0.1320 -0.7215
16141SOL    HW149864   6.827   0.072   5.987  1.5554  0.6717 -0.6772
16141SOL    HW249865   6.746   0.183   6.050  0.2114  0.2463 -1.6047
16142SOL     OW49866   6.278   7.011   0.419  0.1195 -0.1454  0.3765
16142SOL    HW149867   6.327   7.021   0.338 -1.2874 -0.7822 -0.5888
16142SOL    HW249868   6.242   7.098   0.436 -0.6031 -0.2834 -0.3805
16143SOL     OW49869   2.346   2.213   7.052  0.2369  0.2256 -0.3012
16143SOL    HW149870   2.297   2.262   6.986 -0.3423 -0.9327 -0.7585
16143SOL    HW249871   2.281   2.157   7.094  0.7102  0.5160  0.8615
16144SOL     OW49872   3.406   7.892  11.032 -0.1398 -0.3475 -0.2596
16144SOL    HW149873   3.370   7.965  10.982 -1.7494 -0.5538  0.5356
16144SOL    HW249874   3.340   7.873  11.098  0.7209 -1.8539  0.2208
16145SOL     OW49875   2.893   3.701   8.852 -0.1740  0.2804  0.2870
16145SOL    HW149876   2.842   3.623   8.831  0.3015 -0.1710  0.7746
16145SOL    HW249877   2.953   3.710   8.778  0.3696 -0.3402  0.6389
16146SOL     OW49878   0.564   6.189   1.247 -0.4519  0.0785  0.4490
16146SOL    HW149879   0.488   6.182   1.190 -0.4676 -0.6656  0.5541
16146SOL    HW249880   0.580   6.100   1.278  0.5892  0.1821  0.2558
16147SOL     OW49881   4.977   7.522   7.643 -0.2059  0.6816  0.4766
16147SOL    HW149882   4.945   7.448   7.591  0.7102  0.9805 -0.5554
16147SOL    HW249883   4.973   7.596   7.582  0.9372  1.0351  0.8223
16148SOL     OW49884   1.348   1.578   7.384  0.0476 -0.0917 -0.7955
16148SOL    HW149885   1.405   1.520   7.334  0.9340 -0.4998  0.6560
16148SOL    HW249886   1.269   1.526   7.399 -0.7319  0.4453 -2.7333
16149SOL     OW49887   5.518   2.082   6.002 -0.3335  0.5360 -0.0282
16149SOL    HW149888   5.563   2.010   6.046 -0.3108  0.2609 -0.4990
16149SOL    HW249889   5.425   2.059   6.009 -0.3456  0.6326  0.1235
16150SOL     OW49890   6.447   1.716   0.196 -0.2202  0.4514  0.1104
16150SOL    HW149891   6.529   1.759   0.219 -0.2901  0.7940 -0.2790
16150SOL    HW249892   6.473   1.629   0.165  0.2000  1.3175 -2.1084
16151SOL     OW49893   3.230   6.035  11.821 -0.0181 -0.1373 -0.3623
16151SOL    HW149894   3.154   5.981  11.801  0.2929  0.3511 -3.5352
16151SOL    HW249895   3.206   6.123  11.791  1.3417  0.2935 -0.2796
16152SOL     OW49896   5.366   1.680   8.413 -0.6137  0.3934 -0.3045
16152SOL    HW149897   5.364   1.719   8.325  1.1680  0.4313 -0.3643
16152SOL    HW249898   5.408   1.746   8.467  1.4226 -0.9223 -0.1662
16153SOL     OW49899   2.249   6.373   7.901 -0.2315  0.2701  0.3844
16153SOL    HW149900   2.337   6.378   7.938 -0.9386 -1.4110  2.5119
16153SOL    HW249901   2.243   6.285   7.864 -1.3599 -0.0702  1.3057
16154SOL     OW49902   7.784   6.159   1.461  0.1359  0.1119  0.6361
16154SOL    HW149903   7.691   6.182   1.458 -0.9583 -3.6938  0.9821
16154SOL    HW249904   7.786   6.069   1.493  3.9893  0.0692  0.7139
16155SOL     OW49905   3.299   2.414   8.749  0.1303  0.1815 -0.3516
16155SOL    HW149906   3.278   2.482   8.814  0.9081  0.1745 -0.0850
16155SOL    HW249907   3.213   2.378   8.725 -0.1599 -0.1562  1.0476
16156SOL     OW49908   0.864   7.510   7.028  0.1614 -0.3699 -0.1949
16156SOL    HW149909   0.826   7.474   6.948  0.0301 -1.6509  0.4193
16156SOL    HW249910   0.945   7.460   7.040  0.4231  0.1499  0.2176
16157SOL     OW49911   5.071   0.511  10.340 -0.2296  0.0718 -0.0651
16157SOL    HW149912   5.029   0.527  10.256 -0.3118 -0.2477 -0.0861
16157SOL    HW249913   5.048   0.587  10.393 -0.4414  0.1240 -0.2295
16158SOL     OW49914   0.993   6.656   8.798  0.3661 -0.1041  0.1212
16158SOL    HW149915   0.901   6.666   8.825  1.0005  1.3616  1.9779
16158SOL    HW249916   1.005   6.724   8.731 -0.1476 -1.0147 -0.9277
16159SOL     OW49917   0.922   2.739   4.159 -0.1268 -0.1945 -0.0517
16159SOL    HW149918   0.919   2.804   4.089 -2.4830  1.0872  1.1064
16159SOL    HW249919   0.939   2.790   4.239 -0.4380 -1.2095  0.6830
16160SOL     OW49920   4.480   3.676   6.807 -0.0274  0.0734 -0.2507
16160SOL    HW149921   4.407   3.624   6.773  0.6707 -1.4245  0.4138
16160SOL    HW249922   4.446   3.717   6.886 -0.6423  0.7820 -0.8753
16161SOL     OW49923   4.726   3.252   6.366  0.2688 -0.2903  0.1208
16161SOL    HW149924   4.722   3.192   6.291 -1.8229 -1.6600  1.2351
16161SOL    HW249925   4.819   3.254   6.390  0.7281 -1.1738 -1.4389
16162SOL     OW49926   0.314   3.411   8.564 -0.0843  0.1533 -0.2420
16162SOL    HW149927   0.271   3.394   8.648 -0.1574  1.0906 -0.0738
16162SOL    HW249928   0.262   3.482   8.526 -0.3725 -0.6162 -1.3318
16163SOL     OW49929   5.943   3.395   3.296 -0.2211  0.0343 -0.3869
16163SOL    HW149930   5.912   3.348   3.218 -1.5542  2.3368 -1.3536
16163SOL    HW249931   5.867   3.398   3.354  0.2124 -0.0274  0.1891
16164SOL     OW49932   3.538   6.336   6.213 -0.5013  0.2744  0.3094
16164SOL    HW149933   3.483   6.260   6.195 -1.5162  0.8270  0.9696
16164SOL    HW249934   3.533   6.389   6.134  2.4637 -1.5746 -1.3200
16165SOL     OW49935   1.287   5.067   0.555 -0.1499 -0.4133  0.1152
16165SOL    HW149936   1.201   5.101   0.579 -1.1028 -0.7711 -2.5244
16165SOL    HW249937   1.337   5.145   0.530 -1.1036 -0.5042 -2.2913
16166SOL     OW49938   4.446   6.130   1.258 -0.0701  0.4336  0.3826
16166SOL    HW149939   4.423   6.190   1.188  1.6350 -0.9577 -1.5059
16166SOL    HW249940   4.364   6.113   1.303 -1.5365  0.3898 -2.1132
16167SOL     OW49941   4.704   4.360   2.431  0.5891 -0.1476 -0.0465
16167SOL    HW149942   4.643   4.406   2.488  0.6644  1.2325 -1.0439
16167SOL    HW249943   4.650   4.301   2.379  0.5071 -1.3457  1.3229
16168SOL     OW49944   1.429   5.821   8.194 -0.7525  0.3610  0.3487
16168SOL    HW149945   1.436   5.732   8.229  1.5456 -0.2592 -1.4165
16168SOL    HW249946   1.341   5.825   8.157 -1.1107 -0.9676  0.9836
16169SOL     OW49947   2.737   5.647   7.370 -0.4849 -0.0161 -0.1158
16169SOL    HW149948   2.728   5.554   7.388  0.6136  0.1477  1.5394
16169SOL    HW249949   2.673   5.689   7.428 -1.0109  0.2845 -0.8878
16170SOL     OW49950   7.142   4.967   9.777 -0.0263 -0.2050 -0.4933
16170SOL    HW149951   7.158   5.048   9.729  1.7499 -2.1471 -3.5454
16170SOL    HW249952   7.213   4.963   9.841 -0.7878  1.1060  0.4903
16171SOL     OW49953   7.869   4.528   1.681 -0.0989 -0.4961  0.3810
16171SOL    HW149954   7.814   4.466   1.634  0.3303 -0.7066  0.1600
16171SOL    HW249955   7.931   4.474   1.731 -0.9588 -0.3042  1.7149
16172SOL     OW49956   0.663   4.397   8.929  0.9570 -0.1021  0.3289
16172SOL    HW149957   0.665   4.360   8.840  1.8137 -0.4173  0.4660
16172SOL    HW249958   0.577   4.439   8.935  1.1208  0.4591 -0.8638
16173SOL     OW49959   3.662   7.948  10.472 -0.2512 -0.2956 -0.3180
16173SOL    HW149960   3.757   7.952  10.464 -0.3404  1.8135 -0.9715
16173SOL    HW249961   3.644   7.974  10.562 -0.2588  2.3507 -0.9950
16174SOL     OW49962   0.959   2.468   8.509 -0.8340 -0.1143  0.1849
16174SOL    HW149963   0.970   2.376   8.485  0.5535  0.3752 -1.2869
16174SOL    HW249964   0.910   2.506   8.437  1.0329  0.8343 -0.6594
16175SOL     OW49965   4.816   0.329   3.576  0.0044  0.0852  0.3810
16175SOL    HW149966   4.893   0.375   3.544  0.9087 -0.4511  1.6998
16175SOL    HW249967   4.799   0.261   3.511 -1.2031  2.0401 -1.4666
16176SOL     OW49968   0.251   3.483  10.572 -0.6330 -0.0966 -0.2466
16176SOL    HW149969   0.222   3.559  10.622 -0.0457 -0.1784  0.2278
16176SOL    HW249970   0.181   3.419  10.581 -0.1954 -0.4160  1.1432
16177SOL     OW49971   2.709   5.325   8.122 -0.3440 -0.2006 -0.4307
16177SOL    HW149972   2.653   5.395   8.156  1.2645  0.2607  1.5227
16177SOL    HW249973   2.792   5.368   8.104  1.1465 -1.7034  2.1153
16178SOL     OW49974   5.542   3.458   4.783  0.0457  0.9030 -0.1665
16178SOL    HW149975   5.547   3.542   4.737  0.9576 -0.1265 -2.0745
16178SOL    HW249976   5.611   3.406   4.745 -1.3173 -1.1718  0.0383
16179SOL     OW49977   0.082   7.715  10.157 -0.1865 -0.7082 -0.0218
16179SOL    HW149978   0.174   7.709  10.184 -0.6708 -0.1025  1.9806
16179SOL    HW249979   0.067   7.808  10.142 -0.3597 -0.8605 -0.8285
16180SOL     OW49980   2.853   4.684   8.956 -0.1138  0.0969  0.2497
16180SOL    HW149981   2.896   4.607   8.994 -1.4571 -0.3510  0.9258
16180SOL    HW249982   2.802   4.649   8.884  0.6738  0.6395 -0.5970
16181SOL     OW49983   1.439   6.387  11.640 -0.0986 -0.6282 -0.5076
16181SOL    HW149984   1.511   6.334  11.606 -1.0800 -1.7876 -0.8515
16181SOL    HW249985   1.372   6.383  11.571 -0.3224  0.8222 -0.4032
16182SOL     OW49986   0.381   5.427   1.495  0.4661  0.0656  0.1299
16182SOL    HW149987   0.351   5.460   1.580 -1.4656  1.8892 -1.1543
16182SOL    HW249988   0.315   5.362   1.471 -0.1268  0.9886 -0.8114
16183SOL     OW49989   6.000   3.607   6.551 -0.3149  0.5240 -0.0845
16183SOL    HW149990   6.093   3.599   6.528 -0.3252  1.5642 -0.5365
16183SOL    HW249991   5.997   3.680   6.613 -0.6488 -0.4904  1.1355
16184SOL     OW49992   3.051   4.967  10.186  0.5819  0.8954  0.1148
16184SOL    HW149993   2.962   4.985  10.156 -0.2612 -2.2588  0.3524
16184SOL    HW249994   3.065   5.025  10.260 -1.9645  0.2986  1.1379
16185SOL     OW49995   1.401   1.304   2.397  0.1399  0.1729  0.4774
16185SOL    HW149996   1.468   1.242   2.367  0.6420  0.5433  0.8008
16185SOL    HW249997   1.436   1.390   2.371 -1.8940  0.2321 -2.6502
16186SOL     OW49998   3.654   6.105   9.976  0.1807  0.4423 -0.5251
16186SOL    HW149999   3.573   6.125  10.022  0.1140  1.0580 -0.9145
16186SOL    HW250000   3.723   6.133  10.036  0.0974  0.8473 -0.6192
16187SOL     OW50001   2.403   1.269   6.106 -0.5347  0.7860 -0.1110
16187SOL    HW150002   2.373   1.356   6.081 -1.6448  0.5074  0.1662
16187SOL    HW250003   2.348   1.209   6.055  0.7134  0.2340 -0.8587
16188SOL     OW50004   5.059   1.124  10.618  0.5956 -0.0266 -0.4709
16188SOL    HW150005   4.987   1.136  10.556  1.7153  1.9376 -1.4777
16188SOL    HW250006   5.025   1.157  10.701 -0.1209 -0.4459 -0.5884
16189SOL     OW50007   4.722   3.036   6.214 -0.0377 -0.1972  0.0462
16189SOL    HW150008   4.796   2.976   6.209 -1.2305 -1.8338  0.8782
16189SOL    HW250009   4.685   3.036   6.126  0.7343  0.3643 -0.2854
16190SOL     OW50010   1.646   3.349   8.761  0.7473 -0.1535 -0.2003
16190SOL    HW150011   1.600   3.292   8.822 -1.7320  0.6574 -1.1918
16190SOL    HW250012   1.649   3.300   8.679 -0.0574  0.5161 -0.6482
16191SOL     OW50013   4.597   1.720   2.872 -0.3898 -0.2051  0.2144
16191SOL    HW150014   4.613   1.810   2.900 -0.8356 -0.0245 -0.0963
16191SOL    HW250015   4.649   1.710   2.793  0.0549 -0.3834  0.5276
16192SOL     OW50016   4.217   7.053  12.439 -0.0297 -0.3488  0.7867
16192SOL    HW150017   4.218   7.044  12.344 -1.5226 -0.6490  0.7683
16192SOL    HW250018   4.300   7.015  12.468  0.8055  0.4828 -0.4365
16193SOL     OW50019   2.694   0.834   7.184  0.3538 -0.5629  0.0618
16193SOL    HW150020   2.619   0.778   7.204  0.2974 -0.7999 -0.7874
16193SOL    HW250021   2.769   0.775   7.185  0.4832 -0.3937  0.5438
16194SOL     OW50022   5.115   0.053  11.193  0.2511  0.3764  0.3713
16194SOL    HW150023   5.178  -0.019  11.181  0.4513  0.5327  0.4803
16194SOL    HW250024   5.170   0.130  11.207  0.0270  0.2425  2.1516
16195SOL     OW50025   7.114   2.650   0.817 -0.5492  0.0265  0.5503
16195SOL    HW150026   7.100   2.744   0.823 -0.1375  0.0796  0.7804
16195SOL    HW250027   7.027   2.612   0.810 -0.6864  0.4645 -0.1625
16196SOL     OW50028   4.223   5.410   6.402  0.3943 -0.1930 -0.0883
16196SOL    HW150029   4.207   5.341   6.337  0.1910 -0.1471 -0.0880
16196SOL    HW250030   4.142   5.415   6.452  0.3841  0.0929 -0.1312
16197SOL     OW50031   7.102   2.263   7.906  0.1265  0.2763 -0.0820
16197SOL    HW150032   7.051   2.344   7.896  0.3903  0.3041 -1.4183
16197SOL    HW250033   7.186   2.282   7.863  0.8582 -0.1442  1.1150
16198SOL     OW50034   1.740   6.091   5.970  0.2013 -0.2375 -0.0480
16198SOL    HW150035   1.696   6.026   6.025  3.1147  0.5433  3.6626
16198SOL    HW250036   1.676   6.162   5.962 -1.7003 -1.9677 -1.0413
16199SOL     OW50037   0.476   1.794   7.223 -0.1962 -0.2024 -0.0055
16199SOL    HW150038   0.466   1.888   7.211  1.1684 -0.1059 -0.4927
16199SOL    HW250039   0.570   1.777   7.213 -0.4269 -1.6354 -0.0606
16200SOL     OW50040   4.588   5.538   8.473 -0.2522 -0.0946  0.6223
16200SOL    HW150041   4.589   5.445   8.452  0.3127  0.1811 -0.6500
16200SOL    HW250042   4.525   5.576   8.412 -0.3155  0.3943  0.9828
16201SOL     OW50043   2.181   3.484   2.739 -0.3465  0.2964 -0.4186
16201SOL    HW150044   2.224   3.560   2.701 -0.7064 -0.3034 -2.0802
16201SOL    HW250045   2.252   3.426   2.764 -0.1077 -0.3785 -2.5003
16202SOL     OW50046   6.434   7.829   9.805 -0.0056 -0.1089 -0.0409
16202SOL    HW150047   6.386   7.749   9.824  1.5664 -0.9432  0.6229
16202SOL    HW250048   6.515   7.821   9.855  0.4841  1.5999 -0.4891
16203SOL     OW50049   5.935   4.416   3.229 -0.5318  0.1803 -0.1636
16203SOL    HW150050   5.877   4.418   3.305  0.6359  0.1040  0.7635
16203SOL    HW250051   6.021   4.392   3.265 -0.1865 -1.0166 -1.6649
16204SOL     OW50052   0.480   0.230   4.516 -0.2935  0.4727 -0.2414
16204SOL    HW150053   0.530   0.305   4.483 -0.3345 -0.0735 -1.6514
16204SOL    HW250054   0.393   0.266   4.535 -0.3894  0.7539 -1.1440
16205SOL     OW50055   6.966   3.035   1.326  0.2898 -0.2389  0.1405
16205SOL    HW150056   6.885   3.026   1.275 -0.8200  0.7836  1.6220
16205SOL    HW250057   6.936   3.050   1.416  2.1315  0.4599  0.6835
16206SOL     OW50058   1.320   5.451   0.012 -0.1864  0.2840  0.0864
16206SOL    HW150059   1.230   5.430  -0.013  0.7484 -1.1336 -2.4936
16206SOL    HW250060   1.335   5.538  -0.027  0.3667 -0.6974 -2.0474
16207SOL     OW50061   5.609   4.611  10.960 -0.3977  0.3235  0.2294
16207SOL    HW150062   5.554   4.538  10.931 -0.6077  0.6402 -0.1721
16207SOL    HW250063   5.691   4.599  10.912  0.3081 -0.7639  1.6185
16208SOL     OW50064   7.466   0.054   8.952  0.5305 -0.4911  0.4910
16208SOL    HW150065   7.504   0.059   9.040 -1.0371 -1.5328  1.2648
16208SOL    HW250066   7.373   0.038   8.967  0.3935 -1.6816 -1.3690
16209SOL     OW50067   6.986   5.041   9.448  0.3185  0.2300  0.3013
16209SOL    HW150068   6.972   5.081   9.363 -0.2171 -0.5829 -0.0038
16209SOL    HW250069   7.030   4.958   9.429 -0.5232 -0.3392  0.7283
16210SOL     OW50070   3.112   4.342   8.426 -0.3446  0.5418  0.5962
16210SOL    HW150071   3.031   4.296   8.449  0.4443 -1.2341  0.0230
16210SOL    HW250072   3.152   4.362   8.510  0.2859 -1.7557  0.9085
16211SOL     OW50073   6.634   4.368   4.796  0.1257  0.8534 -0.0408
16211SOL    HW150074   6.600   4.423   4.867 -1.8980  0.7541 -0.8661
16211SOL    HW250075   6.640   4.281   4.834  0.6064  1.0936  0.4508
16212SOL     OW50076   7.911   5.507   9.128  0.5069  0.1572  0.0025
16212SOL    HW150077   7.972   5.567   9.084  1.4291 -0.6775  0.0924
16212SOL    HW250078   7.884   5.447   9.059  0.9943 -0.4041  0.2889
16213SOL     OW50079   6.962   6.890   7.082  0.2692 -0.0172  0.0159
16213SOL    HW150080   6.951   6.875   6.988  0.0415  1.0225 -0.1366
16213SOL    HW250081   6.991   6.981   7.088  0.8106 -0.2396  0.9261
16214SOL     OW50082   2.498   1.903  11.931  0.0800 -0.1125  0.3880
16214SOL    HW150083   2.475   1.880  12.021 -0.9094 -0.6658  0.0111
16214SOL    HW250084   2.560   1.835  11.904  0.1133 -0.1402  0.5321
16215SOL     OW50085   5.200   5.061  12.320 -0.2077 -0.3628  0.3091
16215SOL    HW150086   5.112   5.027  12.330 -0.3714  0.1617  0.7178
16215SOL    HW250087   5.188   5.150  12.286  0.0746  0.3546  2.0037
16216SOL     OW50088   4.158   0.598  11.793  0.0048 -0.2927 -0.6053
16216SOL    HW150089   4.129   0.645  11.715 -0.3695  0.1078 -0.2334
16216SOL    HW250090   4.242   0.560  11.769 -0.5954 -1.0621 -1.5467
16217SOL     OW50091   7.742   4.399   5.741 -0.0140  0.1857 -0.5930
16217SOL    HW150092   7.670   4.427   5.685 -0.7784 -0.3387  0.1094
16217SOL    HW250093   7.820   4.412   5.687 -0.7730 -0.9502 -2.0348
16218SOL     OW50094   7.432   6.814   2.547  0.1747  0.6247  0.1253
16218SOL    HW150095   7.527   6.820   2.552  0.1817  1.1626 -0.5389
16218SOL    HW250096   7.409   6.746   2.611  1.1176 -0.4824 -0.6603
16219SOL     OW50097   7.002   0.638   9.864  0.0887 -0.1401 -0.3620
16219SOL    HW150098   7.022   0.726   9.834  2.9038 -1.0330 -1.5146
16219SOL    HW250099   7.035   0.634   9.954 -0.5718  0.1376 -0.1062
16220SOL     OW50100   4.330   4.265   5.004  0.0481  0.5586  0.4321
16220SOL    HW150101   4.400   4.325   4.978  2.9212 -2.6912  0.0832
16220SOL    HW250102   4.255   4.292   4.950  1.1533  3.6863  0.2351
16221SOL     OW50103   5.841   1.334   9.865  0.3360 -0.3625  0.2400
16221SOL    HW150104   5.781   1.280   9.813 -0.2286  0.6280 -0.1464
16221SOL    HW250105   5.924   1.330   9.817  0.5683 -1.6031  0.6913
16222SOL     OW50106   4.710   0.373   9.697  0.3237  0.5453 -0.3529
16222SOL    HW150107   4.712   0.319   9.776 -1.4774 -0.7043 -1.0923
16222SOL    HW250108   4.782   0.340   9.644 -0.0528 -0.3951 -0.3077
16223SOL     OW50109   4.341   2.999   8.105  0.0844 -0.3291  0.7710
16223SOL    HW150110   4.436   2.987   8.108  0.2937  0.8709  0.0166
16223SOL    HW250111   4.319   2.989   8.012  0.0428  2.7538  0.3143
16224SOL     OW50112   2.756   4.377   4.413 -0.3017 -0.0275 -0.9273
16224SOL    HW150113   2.813   4.410   4.483 -0.9334  0.6547 -0.7172
16224SOL    HW250114   2.773   4.435   4.339 -0.6117  0.0825 -0.9124
16225SOL     OW50115   7.206   2.320   6.795  0.2938 -0.2565 -0.1165
16225SOL    HW150116   7.289   2.319   6.748  1.9195  0.0988  2.5286
16225SOL    HW250117   7.183   2.413   6.803 -0.4456 -0.3587 -0.9485
16226SOL     OW50118   1.952   1.225   2.753  0.0071  0.1375 -0.0668
16226SOL    HW150119   1.931   1.289   2.822 -0.0674 -0.4712  0.4891
16226SOL    HW250120   1.870   1.178   2.740  0.3959 -0.7047  0.4574
16227SOL     OW50121   6.236   1.532   1.988 -0.2152  0.0786 -0.5158
16227SOL    HW150122   6.172   1.544   2.059 -1.7268  1.2725 -1.9948
16227SOL    HW250123   6.204   1.588   1.917 -0.2667 -3.0310 -3.1887
16228SOL     OW50124   2.671   5.083   0.087 -0.0975 -0.1419 -0.2740
16228SOL    HW150125   2.694   5.154   0.147 -0.6505 -0.4772  0.3511
16228SOL    HW250126   2.604   5.033   0.134  0.6012 -1.3384 -0.5169
16229SOL     OW50127   5.394   5.935   1.668  0.3106  0.1361 -0.0004
16229SOL    HW150128   5.351   5.943   1.583 -0.4817  0.1992  0.3963
16229SOL    HW250129   5.413   5.842   1.677  2.3269  0.3796 -1.1553
16230SOL     OW50130   2.050   4.405  10.602 -0.5088  0.1173  0.2050
16230SOL    HW150131   1.971   4.458  10.612 -0.6511  0.1022 -0.7747
16230SOL    HW250132   2.067   4.372  10.690 -1.0647  0.8693  0.6057
16231SOL     OW50133   6.900   4.462   4.857  0.8931 -0.0107 -0.3465
16231SOL    HW150134   6.813   4.426   4.842  0.8503  0.1302 -0.4417
16231SOL    HW250135   6.947   4.449   4.775  1.3321 -1.1069  0.0591
16232SOL     OW50136   5.625   6.053   2.509  0.1045  0.2713 -0.5990
16232SOL    HW150137   5.549   5.995   2.517 -0.0199  0.5574  0.4312
16232SOL    HW250138   5.600   6.133   2.556  1.0072  0.4057 -0.3251
16233SOL     OW50139   3.224   3.862   6.957  0.2111  0.0906  0.0697
16233SOL    HW150140   3.187   3.784   6.997 -1.7608  0.4538 -0.9497
16233SOL    HW250141   3.312   3.835   6.930  1.1657 -0.5445  3.3199
16234SOL     OW50142   5.909   5.681   3.870 -0.7568 -0.3715 -0.1594
16234SOL    HW150143   5.886   5.594   3.837 -2.3375  0.0921 -0.3728
16234SOL    HW250144   5.833   5.735   3.849 -0.3401  0.7619  1.1372
16235SOL     OW50145   5.651   4.076   4.690 -0.2550 -0.4881  0.2399
16235SOL    HW150146   5.612   4.035   4.767  0.4882 -1.0208  0.3432
16235SOL    HW250147   5.655   4.006   4.625 -1.1115  0.0226 -0.3858
16236SOL     OW50148   3.465   7.544  11.832 -0.1016 -0.2864  0.3537
16236SOL    HW150149   3.481   7.461  11.876  0.2738  1.0475  2.9287
16236SOL    HW250150   3.517   7.539  11.752  0.7343 -2.1245  0.9622
16237SOL     OW50151   3.712   3.218  12.262 -0.1354 -0.4576  0.4804
16237SOL    HW150152   3.782   3.252  12.207 -2.7457 -0.4405 -3.2202
16237SOL    HW250153   3.734   3.126  12.276  1.7605  0.1188  1.5321
16238SOL     OW50154   0.684   5.723   8.334 -0.2255  0.9558 -1.1675
16238SOL    HW150155   0.775   5.738   8.359 -0.8790  1.9313  0.9021
16238SOL    HW250156   0.688   5.658   8.264  1.9805 -0.1419 -0.1163
16239SOL     OW50157   4.167   1.290   3.953 -0.2889 -0.1348 -0.6057
16239SOL    HW150158   4.175   1.209   4.003 -0.8929 -0.5029 -1.0841
16239SOL    HW250159   4.245   1.340   3.975 -0.9643  0.0963  1.3814
16240SOL     OW50160   1.739   0.442   6.116 -0.3975 -0.0811 -0.0994
16240SOL    HW150161   1.742   0.536   6.136  0.3716 -0.2490  0.6323
16240SOL    HW250162   1.683   0.436   6.039 -1.9965  0.7987  0.9158
16241SOL     OW50163   4.405   7.627   1.742 -0.1466  0.6826  0.3867
16241SOL    HW150164   4.362   7.603   1.824 -0.9593 -0.1723 -0.2710
16241SOL    HW250165   4.462   7.553   1.722 -1.0244  0.2278 -0.5347
16242SOL     OW50166   6.090   0.593   3.890  0.5503  0.1604 -0.0601
16242SOL    HW150167   6.005   0.578   3.848  0.6948 -0.5950 -0.1043
16242SOL    HW250168   6.069   0.630   3.975  0.1759  0.1152 -0.1300
16243SOL     OW50169   3.897   6.374   7.794  0.1690  0.3653 -0.6452
16243SOL    HW150170   3.877   6.288   7.830  0.3043 -0.1905 -1.8494
16243SOL    HW250171   3.893   6.433   7.869 -0.0105 -0.6717  0.1823
16244SOL     OW50172   1.881   7.318   6.006 -0.1988  0.3736  0.1894
16244SOL    HW150173   1.811   7.354   6.060  0.6227  1.3033  0.6675
16244SOL    HW250174   1.911   7.392   5.952  1.1905  0.3301  0.8367
16245SOL     OW50175   3.910   6.429   4.778  0.0674  0.0450  0.4665
16245SOL    HW150176   3.901   6.521   4.805 -1.0052  0.3218 -0.6774
16245SOL    HW250177   3.882   6.379   4.855  1.2576  0.6446  1.3157
16246SOL     OW50178   1.535   2.258   6.204 -0.0533 -0.0961 -0.1032
16246SOL    HW150179   1.572   2.172   6.221 -0.4494 -0.5598 -1.4831
16246SOL    HW250180   1.475   2.273   6.277 -0.4309 -1.2380 -0.1660
16247SOL     OW50181   7.022   6.912   4.059  0.0758  0.3356  0.1492
16247SOL    HW150182   7.075   6.933   3.983 -0.3018  0.1148 -0.1807
16247SOL    HW250183   6.932   6.916   4.027 -0.0405 -1.1066  0.2260
16248SOL     OW50184   6.900   0.688   0.586  0.1070  0.2944  0.3099
16248SOL    HW150185   6.958   0.755   0.623 -0.4275  0.8003  0.2528
16248SOL    HW250186   6.812   0.714   0.616 -0.4408  1.0719 -1.7569
16249SOL     OW50187   5.314   5.148   7.101 -0.2028 -0.2653 -0.1040
16249SOL    HW150188   5.356   5.205   7.165  0.4002 -0.9904  0.1621
16249SOL    HW250189   5.267   5.208   7.042  0.0088  0.4638  0.4531
16250SOL     OW50190   4.519   7.270   3.544 -0.1183 -0.0800 -0.1865
16250SOL    HW150191   4.563   7.319   3.474  0.2253  2.3625  1.5806
16250SOL    HW250192   4.590   7.241   3.601 -0.5194  0.3036  0.5252
16251SOL     OW50193   0.538   6.778   8.251 -0.4906  0.2140 -0.2985
16251SOL    HW150194   0.502   6.799   8.337  0.3539 -0.9162  0.3474
16251SOL    HW250195   0.627   6.748   8.268 -0.2748  0.0740 -1.5765
16252SOL     OW50196   7.956   4.614   3.217 -0.1068  0.1982  0.2289
16252SOL    HW150197   7.876   4.617   3.270 -1.2342 -3.3124 -0.9945
16252SOL    HW250198   7.950   4.692   3.162 -3.1271 -0.2506 -0.2852
16253SOL     OW50199   1.309   4.491  11.953 -0.1564 -0.1004  0.0006
16253SOL    HW150200   1.285   4.580  11.927 -0.9640 -0.4161 -0.3863
16253SOL    HW250201   1.255   4.434  11.897 -0.5796 -0.8195  1.0994
16254SOL     OW50202   4.660   2.218   3.076 -0.5380  0.2869  0.5211
16254SOL    HW150203   4.702   2.301   3.100  1.3068 -0.4336 -0.0131
16254SOL    HW250204   4.579   2.244   3.033 -0.7254  1.7570  1.6870
16255SOL     OW50205   1.011   1.046   5.745  0.2556 -0.6437  1.1041
16255SOL    HW150206   0.922   1.042   5.781 -0.6503  1.7505 -0.5743
16255SOL    HW250207   0.997   1.050   5.650  2.0900  0.6886  0.8431
16256SOL     OW50208   1.676   7.715  10.974 -0.5627  0.0932 -0.4019
16256SOL    HW150209   1.704   7.647  10.912  0.3463 -0.3297  0.4521
16256SOL    HW250210   1.603   7.676  11.021  0.5525 -0.6896  0.7396
16257SOL     OW50211   6.300   3.131   0.376  0.4726  0.4406  0.2556
16257SOL    HW150212   6.364   3.093   0.436 -0.5931  1.2166  1.9743
16257SOL    HW250213   6.352   3.169   0.305  1.8030 -0.1180  0.9035
16258SOL     OW50214   5.146   5.538   6.041 -0.3826  0.5373  0.3935
16258SOL    HW150215   5.206   5.573   6.107  0.7228 -1.3365  0.4797
16258SOL    HW250216   5.065   5.522   6.088  0.8627 -2.2710  1.8270
16259SOL     OW50217   4.676   0.691   9.722  0.1632 -0.2237 -0.2301
16259SOL    HW150218   4.668   0.786   9.728  0.3579 -0.1218 -1.2861
16259SOL    HW250219   4.661   0.672   9.629  1.1358 -1.1103 -0.2228
16260SOL     OW50220   1.035   2.747   5.370  0.2829 -0.5677  0.0905
16260SOL    HW150221   1.125   2.721   5.390  0.6556  0.9141  0.4735
16260SOL    HW250222   1.043   2.836   5.336 -0.9794 -0.6825 -0.5677
16261SOL     OW50223   1.638   2.675   0.407 -0.5081 -0.7775  0.0072
16261SOL    HW150224   1.724   2.647   0.436 -0.5296 -0.3113  0.5307
16261SOL    HW250225   1.629   2.765   0.439 -1.4217 -1.0226  0.4864
16262SOL     OW50226   6.697   6.851  11.161  0.1016  0.0843  0.4098
16262SOL    HW150227   6.789   6.863  11.184  0.0685 -0.9389  1.2030
16262SOL    HW250228   6.649   6.883  11.237 -0.1637 -0.0852  0.3157
16263SOL     OW50229   0.983   3.669   7.946  0.0607 -0.5817  0.2216
16263SOL    HW150230   0.998   3.577   7.923  1.6568 -0.1956 -0.4062
16263SOL    HW250231   1.041   3.718   7.888  0.7756  0.7104  1.9347
16264SOL     OW50232   6.870   0.814   2.956 -0.4843 -0.1316 -0.5673
16264SOL    HW150233   6.780   0.782   2.963 -0.5165  0.2447  1.1397
16264SOL    HW250234   6.879   0.877   3.027  1.0625  0.0176 -0.8529
16265SOL     OW50235   0.509   6.044   0.559  0.3971  0.2141  0.4638
16265SOL    HW150236   0.429   6.090   0.532 -0.2814  0.3575  2.5458
16265SOL    HW250237   0.487   5.951   0.555  0.4820  0.2091  0.0441
16266SOL     OW50238   7.611   3.952   5.486 -0.2055  0.3367 -0.0995
16266SOL    HW150239   7.678   3.970   5.420  0.0475 -0.1065  0.0325
16266SOL    HW250240   7.611   4.029   5.542 -0.9929  1.0774 -1.0847
16267SOL     OW50241   6.030   3.234   8.224  0.0345 -0.1601  0.6560
16267SOL    HW150242   6.075   3.175   8.284  0.6007 -0.1889  0.2196
16267SOL    HW250243   5.943   3.196   8.214  1.2891 -2.7493 -1.9827
16268SOL     OW50244   7.199   6.200   8.644  0.4376 -0.4569  0.1422
16268SOL    HW150245   7.134   6.262   8.612 -0.1325 -1.0556  0.1224
16268SOL    HW250246   7.283   6.235   8.613  0.0542 -0.1341 -0.5528
16269SOL     OW50247   2.991   7.313   2.799  0.1146  0.4321 -0.1301
16269SOL    HW150248   3.016   7.401   2.826 -2.9309  1.9831 -1.8547
16269SOL    HW250249   2.935   7.281   2.870  0.2425  0.3732 -0.0554
16270SOL     OW50250   3.524   6.691   5.133 -0.0135 -0.0126 -0.2520
16270SOL    HW150251   3.579   6.736   5.197  0.7805  0.3603 -1.1624
16270SOL    HW250252   3.442   6.740   5.132 -0.6783 -1.0031  1.6506
16271SOL     OW50253   5.653   5.621   1.256 -0.5400 -0.2485  0.2761
16271SOL    HW150254   5.705   5.695   1.288 -2.2071  0.7926  0.7366
16271SOL    HW250255   5.601   5.658   1.185 -0.7715 -1.2150 -0.0616
16272SOL     OW50256   2.380   1.058   1.045 -0.2134 -0.0681 -0.1134
16272SOL    HW150257   2.456   1.062   1.103  0.9642  1.1124 -1.6639
16272SOL    HW250258   2.351   1.149   1.037 -1.7449 -0.4770  0.3301
16273SOL     OW50259   0.407   5.791   3.089  0.1391  0.1063 -0.3946
16273SOL    HW150260   0.392   5.709   3.136 -0.8222 -0.8657 -2.2570
16273SOL    HW250261   0.352   5.855   3.134  1.8244  0.0703  1.8298
16274SOL     OW50262   2.943   0.197   2.284 -0.0112  0.3807 -0.0627
16274SOL    HW150263   3.031   0.234   2.274 -0.2686  1.7644  2.1329
16274SOL    HW250264   2.884   0.265   2.252 -0.3481 -0.3577 -1.0837
16275SOL     OW50265   6.175   6.030   5.056  0.0160 -0.5675 -0.8679
16275SOL    HW150266   6.178   6.102   5.119 -0.0551 -1.3555  0.0434
16275SOL    HW250267   6.104   5.974   5.086 -0.3048 -0.7444 -1.8949
16276SOL     OW50268   5.290   4.084   5.832  0.2161  0.4361 -0.3994
16276SOL    HW150269   5.373   4.078   5.784  0.8472  3.1118  0.1512
16276SOL    HW250270   5.230   4.127   5.772  0.1958  1.3431  0.2453
16277SOL     OW50271   3.509   7.761   4.464  0.2778 -0.0539  0.4402
16277SOL    HW150272   3.556   7.678   4.458 -0.6377 -0.5846  0.3766
16277SOL    HW250273   3.492   7.772   4.557 -0.2144 -0.3076  0.3878
16278SOL     OW50274   6.087   6.831   5.985 -0.6870 -0.6351  0.1037
16278SOL    HW150275   6.071   6.738   6.002 -1.7633 -0.3310  0.8729
16278SOL    HW250276   6.005   6.874   6.009  0.7113  0.8733  2.6049
16279SOL     OW50277   5.279   6.113   2.811  0.4453  0.2338 -0.1102
16279SOL    HW150278   5.184   6.127   2.808  0.4910  0.5579 -0.1317
16279SOL    HW250279   5.309   6.169   2.883  0.4287 -1.0765  0.9511
16280SOL     OW50280   3.964   0.960   5.623 -0.3561 -0.1924  0.2807
16280SOL    HW150281   3.959   1.055   5.637 -3.1866 -0.2102  0.0020
16280SOL    HW250282   3.960   0.950   5.528 -1.8224 -0.5768  0.3514
16281SOL     OW50283   2.547   4.110   7.469  0.2061 -0.2867 -0.0104
16281SOL    HW150284   2.639   4.102   7.494  0.1727 -1.3448 -0.1836
16281SOL    HW250285   2.540   4.197   7.431  1.6394 -0.9808 -2.0067
16282SOL     OW50286   2.249   6.322   0.699 -0.2691  0.0831 -0.3573
16282SOL    HW150287   2.342   6.343   0.689  0.2901 -1.8394  0.4427
16282SOL    HW250288   2.246   6.227   0.707 -2.0949  0.2330  1.8152
16283SOL     OW50289   3.972   7.436   7.209 -0.5455  0.3386 -0.1478
16283SOL    HW150290   4.064   7.460   7.206 -0.9121  1.9120 -2.9950
16283SOL    HW250291   3.972   7.341   7.214  1.2074  0.3511  0.6992
16284SOL     OW50292   6.985   7.340   2.077  0.7163 -0.4487  0.4183
16284SOL    HW150293   7.076   7.356   2.053  0.5157  0.5734  0.2874
16284SOL    HW250294   6.987   7.326   2.171  0.8116  1.2878  0.6964
16285SOL     OW50295   3.794   5.369   1.428 -0.5560  0.0389 -0.0470
16285SOL    HW150296   3.731   5.360   1.356  1.5688 -2.9735 -1.7783
16285SOL    HW250297   3.763   5.308   1.494 -1.4975  1.4418  0.8464
16286SOL     OW50298   1.330   0.389  12.161  0.5551  0.0419  0.2862
16286SOL    HW150299   1.325   0.450  12.087  1.3189  1.9115  1.7007
16286SOL    HW250300   1.269   0.424  12.225  1.3268 -0.4381  1.3113
16287SOL     OW50301   3.163   5.258   6.455 -0.5497  0.0325 -0.0398
16287SOL    HW150302   3.121   5.287   6.536 -2.6986  0.1121 -1.1262
16287SOL    HW250303   3.213   5.181   6.480 -2.5422 -0.9559  1.0703
16288SOL     OW50304   2.618   0.498  10.797 -0.6377 -0.0387 -0.1255
16288SOL    HW150305   2.611   0.537  10.710 -1.5787 -0.6159 -0.3209
16288SOL    HW250306   2.710   0.508  10.821 -0.8549  2.5214 -0.0536
16289SOL     OW50307   6.925   5.076   1.557  0.0237  0.0678  0.0185
16289SOL    HW150308   6.898   4.990   1.590 -0.7517  0.1994 -0.2526
16289SOL    HW250309   6.845   5.114   1.521  0.3140  1.0024  0.3392
16290SOL     OW50310   6.313   7.444   5.252 -0.3405 -0.0054 -0.3856
16290SOL    HW150311   6.350   7.478   5.333 -2.4538  0.9832  0.2588
16290SOL    HW250312   6.362   7.487   5.183 -1.0152  2.2146  0.4265
16291SOL     OW50313   2.531   3.514   9.476  0.2791 -0.9053 -0.0489
16291SOL    HW150314   2.623   3.506   9.500 -0.0725 -0.8608  1.4218
16291SOL    HW250315   2.497   3.582   9.534 -0.6675 -0.8848 -0.6083
16292SOL     OW50316   7.709   5.645   2.014  0.0571  0.7535  0.7696
16292SOL    HW150317   7.712   5.583   2.087 -0.9148  0.5213  0.6245
16292SOL    HW250318   7.780   5.616   1.956 -0.8552 -0.7403  0.3242
16293SOL     OW50319   5.370   5.701   0.873 -0.4683  0.1241  0.5421
16293SOL    HW150320   5.315   5.622   0.879 -1.3129  0.5699 -0.9337
16293SOL    HW250321   5.345   5.742   0.790  2.1968  0.3012 -0.2623
16294SOL     OW50322   6.914   3.381  11.027 -0.1507  0.5666 -0.1843
16294SOL    HW150323   6.967   3.304  11.048  0.3491  0.7053 -0.9025
16294SOL    HW250324   6.950   3.413  10.944 -1.1239  0.8837 -0.4932
16295SOL     OW50325   4.916   1.669   7.963  0.0085  0.1906 -0.0365
16295SOL    HW150326   5.005   1.637   7.945  0.2439 -0.8692  2.5438
16295SOL    HW250327   4.927   1.729   8.036 -1.3443  0.5559 -0.1174
16296SOL     OW50328   0.175   4.123   4.798 -0.3410  0.2611 -0.1159
16296SOL    HW150329   0.205   4.077   4.720  1.9134 -0.0097  0.8228
16296SOL    HW250330   0.146   4.208   4.766  0.3066  0.0589 -1.2920
16297SOL     OW50331   2.451   0.803   5.290 -0.3058  0.1274  0.1883
16297SOL    HW150332   2.397   0.848   5.226 -0.9101 -0.0169  0.5865
16297SOL    HW250333   2.524   0.768   5.240 -1.1339 -0.5975 -0.5510
16298SOL     OW50334   6.143   5.828  10.359 -0.4325 -0.2109  0.0919
16298SOL    HW150335   6.073   5.859  10.416 -0.6689 -0.9645  0.2287
16298SOL    HW250336   6.152   5.895  10.292 -1.2186 -0.0673  0.1282
16299SOL     OW50337   5.489   7.332   0.354  0.4102 -0.5195 -0.2089
16299SOL    HW150338   5.399   7.362   0.348 -0.1542 -1.9321  0.7416
16299SOL    HW250339   5.538   7.410   0.380 -0.8166 -0.0926  0.9574
16300SOL     OW50340   7.616   2.350   8.399 -0.0146  0.3325  0.2874
16300SOL    HW150341   7.524   2.374   8.396  0.5998  3.1897  0.7218
16300SOL    HW250342   7.635   2.314   8.312 -1.4757 -0.0590  0.1138
16301SOL     OW50343   6.334   7.946   6.649 -0.1840  0.0529 -0.1167
16301SOL    HW150344   6.425   7.937   6.676 -0.9429 -0.8182  2.4595
16301SOL    HW250345   6.333   8.022   6.591  1.9830  0.9056  0.8704
16302SOL     OW50346   7.925   3.753   6.281 -0.1850  0.9502 -0.1017
16302SOL    HW150347   7.942   3.739   6.188 -0.4850  1.2051 -0.1947
16302SOL    HW250348   7.990   3.698   6.325  0.9558  1.9845 -0.4490
16303SOL     OW50349   3.058   6.982   7.476 -0.4644  0.0061  0.3429
16303SOL    HW150350   3.148   6.960   7.501 -0.4015  0.3493  0.4207
16303SOL    HW250351   3.068   7.055   7.415 -0.7075  0.2111  0.5518
16304SOL     OW50352   2.557   0.820   2.009  0.3916  0.0139  0.4254
16304SOL    HW150353   2.619   0.893   2.011 -0.4076  0.7314 -0.4806
16304SOL    HW250354   2.476   0.857   1.977  0.0527 -1.3347 -0.3701
16305SOL     OW50355   5.138   0.441   9.355 -0.2588  0.1745 -0.0892
16305SOL    HW150356   5.129   0.401   9.442  0.5387  1.2173  0.4915
16305SOL    HW250357   5.222   0.409   9.323 -0.0016  0.7294  0.0288
16306SOL     OW50358   1.164   2.027   5.410  0.1157  0.2062 -0.1050
16306SOL    HW150359   1.244   2.034   5.463  1.4623  0.1161 -1.9996
16306SOL    HW250360   1.166   2.105   5.354 -0.7942 -0.1285 -0.6228
16307SOL     OW50361   0.868   3.180   0.814  0.3928  0.4125  0.0864
16307SOL    HW150362   0.834   3.101   0.771 -0.0988  0.1677  0.9054
16307SOL    HW250363   0.912   3.227   0.744 -0.3321 -0.0061 -0.6848
16308SOL     OW50364   0.320   6.221   7.735 -0.3091 -0.6977  0.3929
16308SOL    HW150365   0.391   6.157   7.723  0.3437  0.3548 -2.1905
16308SOL    HW250366   0.340   6.264   7.818  1.2962 -1.3720  0.4064
16309SOL     OW50367   7.677   4.210   1.846 -0.0446  0.1833  0.0890
16309SOL    HW150368   7.714   4.152   1.779  0.5461 -1.1181  1.4762
16309SOL    HW250369   7.607   4.257   1.801  0.5163 -0.4331 -1.5039
16310SOL     OW50370   1.717   7.641  10.591 -0.3059  0.4905  0.6105
16310SOL    HW150371   1.768   7.576  10.543  0.8706  0.6666  1.6016
16310SOL    HW250372   1.626   7.617  10.572  0.0692 -1.6562  1.1822
16311SOL     OW50373   6.491   2.052   4.830 -0.0601 -0.0197  0.1656
16311SOL    HW150374   6.517   2.071   4.740  0.0848 -1.3480 -0.0886
16311SOL    HW250375   6.421   2.115   4.848 -0.0596  0.2943 -0.8560
16312SOL     OW50376   0.177   7.748   4.714 -0.4094  0.5581 -0.1142
16312SOL    HW150377   0.197   7.835   4.748  0.5862 -0.8007  3.2406
16312SOL    HW250378   0.177   7.691   4.791  0.3606 -2.6810 -2.2628
16313SOL     OW50379   1.485   2.649  10.882 -0.1309 -0.5662 -0.7007
16313SOL    HW150380   1.454   2.600  10.959  0.4003 -0.4153 -0.3833
16313SOL    HW250381   1.405   2.671  10.834 -0.4052 -1.4427 -0.6668
16314SOL     OW50382   1.007   6.402   9.492  0.0115 -0.5800  0.2976
16314SOL    HW150383   0.986   6.396   9.399 -1.6809  2.2912  0.3918
16314SOL    HW250384   1.060   6.324   9.510  2.0594 -0.2892 -3.4792
16315SOL     OW50385   2.263   4.126   1.430 -0.8748 -0.5380 -0.5153
16315SOL    HW150386   2.351   4.104   1.461 -1.3105 -0.7606  0.6098
16315SOL    HW250387   2.278   4.173   1.348  0.3420  0.4700  0.2522
16316SOL     OW50388   1.740   6.942   8.352  0.2302  0.2508 -0.2584
16316SOL    HW150389   1.823   6.983   8.330  0.3074  2.2455  3.1357
16316SOL    HW250390   1.676   6.982   8.292  1.2060  1.0845 -0.7668
16317SOL     OW50391   0.537   5.283   2.099  0.2528  0.2044  0.1886
16317SOL    HW150392   0.495   5.303   2.015 -1.8086 -0.2627  1.0312
16317SOL    HW250393   0.546   5.368   2.142  2.1217  0.5514 -0.8142
16318SOL     OW50394   6.886   5.708   0.895 -0.1407 -0.6696  0.2356
16318SOL    HW150395   6.835   5.639   0.853  1.6772 -0.3606 -2.7027
16318SOL    HW250396   6.966   5.714   0.844  0.4553  2.6177  1.3016
16319SOL     OW50397   7.413   5.134   2.304 -0.1706  0.1117 -0.3000
16319SOL    HW150398   7.466   5.170   2.233  0.1921 -0.4071 -0.2952
16319SOL    HW250399   7.366   5.061   2.264 -2.0902  1.4578 -0.7199
16320SOL     OW50400   4.253   1.575   0.047  0.4697  0.6370  0.3082
16320SOL    HW150401   4.205   1.645   0.093 -0.9867  1.0090 -1.6219
16320SOL    HW250402   4.190   1.541  -0.016  1.4324 -1.9000  0.6207
16321SOL     OW50403   0.221   0.984   1.760  0.1794 -0.4237  0.0466
16321SOL    HW150404   0.238   0.976   1.854  0.8683  0.6781  0.0415
16321SOL    HW250405   0.296   1.034   1.727 -1.7854  2.4570 -0.4424
16322SOL     OW50406   6.054   5.579   6.075 -0.1979  0.1855 -0.1241
16322SOL    HW150407   6.112   5.656   6.072  0.7848 -0.3689  2.5235
16322SOL    HW250408   6.099   5.516   6.131 -2.2903 -1.2231  0.1087
16323SOL     OW50409   1.639   4.698   9.930  0.0908 -0.1386 -0.4436
16323SOL    HW150410   1.623   4.792   9.943 -0.9669 -0.3673 -0.0207
16323SOL    HW250411   1.711   4.678   9.990  0.1971  0.3622 -0.3996
16324SOL     OW50412   0.591   5.035   9.646 -0.0620 -0.3460  0.1084
16324SOL    HW150413   0.659   5.102   9.652 -0.6236  0.3290 -0.8933
16324SOL    HW250414   0.539   5.046   9.726 -0.2194  0.4858 -0.1089
16325SOL     OW50415   6.338   0.972   1.406  0.4114 -0.1196  0.7563
16325SOL    HW150416   6.402   1.043   1.415  1.0424 -0.7427  1.2371
16325SOL    HW250417   6.303   0.983   1.317  2.0431 -0.4902  0.0426
16326SOL     OW50418   2.331   5.262   1.458 -0.3339 -0.2786  0.4657
16326SOL    HW150419   2.399   5.323   1.427 -0.8309  0.3356  0.5671
16326SOL    HW250420   2.363   5.233   1.544 -1.2506  1.7983  1.5992
16327SOL     OW50421   6.909   7.531   9.754  0.1717  0.5854  0.7512
16327SOL    HW150422   6.899   7.522   9.660 -0.4296  1.9393  0.6733
16327SOL    HW250423   6.839   7.477   9.791  1.2297 -1.0468  0.4879
16328SOL     OW50424   7.289   2.308   0.458  0.6177  0.7432 -0.1447
16328SOL    HW150425   7.298   2.388   0.509 -0.4504  0.5621  0.3577
16328SOL    HW250426   7.218   2.326   0.396 -0.7291 -0.3058  1.0173
16329SOL     OW50427   3.009   6.087  12.393 -0.1634  0.0776 -0.0794
16329SOL    HW150428   2.934   6.127  12.350 -0.0084 -0.2246 -0.6415
16329SOL    HW250429   2.982   5.997  12.411 -0.0563  0.0674  0.0376
16330SOL     OW50430   5.271   7.505   6.058  0.3208 -1.0062 -0.2127
16330SOL    HW150431   5.214   7.434   6.086 -0.2083 -1.1164 -1.5213
16330SOL    HW250432   5.281   7.492   5.964  2.6606 -1.0880  0.0003
16331SOL     OW50433   2.482   5.172   4.785  0.4892 -0.1848  0.5025
16331SOL    HW150434   2.500   5.163   4.879 -2.0958 -2.6641  0.8797
16331SOL    HW250435   2.535   5.104   4.744 -0.6167 -1.0884  0.5386
16332SOL     OW50436   1.932   4.136   1.852 -0.2108 -0.1451  0.0888
16332SOL    HW150437   1.863   4.070   1.857  0.3550 -0.8736 -1.2221
16332SOL    HW250438   1.925   4.172   1.764  0.0476  0.9370  0.4998
16333SOL     OW50439   1.301   6.847   7.733 -0.2023 -0.2303  0.2836
16333SOL    HW150440   1.301   6.754   7.709 -0.9925  0.1030 -1.0697
16333SOL    HW250441   1.345   6.890   7.660 -1.5573  0.6767 -0.0160
16334SOL     OW50442   6.029   4.627   9.342 -0.1734  0.0033 -0.2405
16334SOL    HW150443   5.955   4.671   9.383 -1.4511 -1.0892 -1.3067
16334SOL    HW250444   6.037   4.544   9.391 -1.2495 -0.9798 -1.6503
16335SOL     OW50445   7.770   1.412   5.198 -0.2931 -0.0536  0.5375
16335SOL    HW150446   7.840   1.384   5.258 -0.4766  1.2271  1.3877
16335SOL    HW250447   7.745   1.332   5.152  0.5558 -0.8785  1.4557
16336SOL     OW50448   1.619   7.481   3.629 -0.3574 -0.2222  0.1747
16336SOL    HW150449   1.523   7.480   3.629 -0.4327  2.3025 -0.2003
16336SOL    HW250450   1.642   7.485   3.536  0.0225  1.0365  0.3058
16337SOL     OW50451   0.481   5.996   6.809  0.1494  0.5447  0.0117
16337SOL    HW150452   0.447   6.017   6.896 -0.3176  1.6132 -0.4148
16337SOL    HW250453   0.487   5.900   6.808  0.8269  0.5523  1.4524
16338SOL     OW50454   0.244   3.129   1.672  0.4931  0.0423 -0.2820
16338SOL    HW150455   0.168   3.135   1.730  0.5421 -0.2597 -0.1840
16338SOL    HW250456   0.258   3.035   1.660 -0.3360  0.1050 -1.8759
16339SOL     OW50457   6.481   6.208   7.856 -0.0632 -0.1058  0.0826
16339SOL    HW150458   6.452   6.228   7.945  0.1945 -0.5508  0.2690
16339SOL    HW250459   6.504   6.293   7.818  0.0204  0.0629  0.5106
16340SOL     OW50460   2.123   0.054   2.200  0.0927 -0.7146 -0.0105
16340SOL    HW150461   2.049   0.005   2.165  1.0553 -3.8255  1.8977
16340SOL    HW250462   2.162  -0.004   2.266  3.2339  1.4427  0.2850
16341SOL     OW50463   1.787   3.160  10.635  0.0481  0.1667  0.0928
16341SOL    HW150464   1.849   3.155  10.563 -0.3799 -0.6209 -0.2384
16341SOL    HW250465   1.727   3.230  10.611  0.2547  0.3027 -0.0299
16342SOL     OW50466   6.291   7.487   8.003 -0.2332 -0.0490 -0.7221
16342SOL    HW150467   6.210   7.461   8.047 -0.2210  0.1843 -0.5582
16342SOL    HW250468   6.360   7.451   8.059 -0.2248 -0.8236 -1.2175
16343SOL     OW50469   5.793   0.988   8.953  0.2438  0.0399 -0.1757
16343SOL    HW150470   5.805   1.081   8.934 -0.2503  0.0486 -0.4753
16343SOL    HW250471   5.766   0.985   9.045 -0.4814  0.2575 -0.3758
16344SOL     OW50472   3.589   6.297   4.779  0.0245 -0.0546  0.2446
16344SOL    HW150473   3.651   6.268   4.846 -1.8042 -0.6838  1.7676
16344SOL    HW250474   3.578   6.391   4.796 -1.0178 -0.3575  1.3958
16345SOL     OW50475   0.309   7.037  10.741  0.5288 -0.1485 -0.3300
16345SOL    HW150476   0.241   6.969  10.742  2.1064 -1.7918  0.4936
16345SOL    HW250477   0.295   7.085  10.823  1.2495 -1.4654  0.6062
16346SOL     OW50478   5.755   1.136   6.675 -0.4549 -0.4495 -0.0973
16346SOL    HW150479   5.758   1.153   6.580  1.7313  0.1353  0.0116
16346SOL    HW250480   5.833   1.084   6.692 -0.5008 -0.0517  1.4585
16347SOL     OW50481   3.975   6.631   6.069  0.1999 -0.1235 -0.3939
16347SOL    HW150482   3.890   6.675   6.072  0.9961  1.4629  0.7965
16347SOL    HW250483   4.039   6.702   6.074  1.6400 -1.2308 -1.8834
16348SOL     OW50484   5.682   1.786   6.849  0.1683  0.2619  1.4399
16348SOL    HW150485   5.748   1.727   6.813  0.6901  1.1629  0.8780
16348SOL    HW250486   5.611   1.729   6.877  0.9165 -0.6736  1.4659
16349SOL     OW50487   6.478   6.894  11.571 -0.5357  0.0316 -0.3358
16349SOL    HW150488   6.449   6.985  11.583  0.3367  0.2812 -0.0047
16349SOL    HW250489   6.408   6.841  11.609 -1.4535  0.5194 -1.2996
16350SOL     OW50490   3.060   2.787   8.016  0.1810  0.0679 -0.5403
16350SOL    HW150491   3.148   2.822   8.001  0.6839 -1.3650 -1.1312
16350SOL    HW250492   3.004   2.865   8.026  1.3349  1.0044 -1.1687
16351SOL     OW50493   6.979   5.741  10.883  0.0387 -0.1315 -0.4520
16351SOL    HW150494   6.912   5.683  10.919 -0.0949  0.0333 -0.4364
16351SOL    HW250495   7.040   5.755  10.956 -0.2033  0.1602 -0.3041
16352SOL     OW50496   6.265   4.097   9.297  0.1443 -0.1445 -0.2353
16352SOL    HW150497   6.235   4.015   9.334 -1.6818  0.2783 -0.7003
16352SOL    HW250498   6.360   4.087   9.289  0.7592 -0.2901  4.4485
16353SOL     OW50499   3.457   1.218   5.157 -0.0400  0.0378  0.5743
16353SOL    HW150500   3.387   1.200   5.094  1.2331 -1.7080 -0.4295
16353SOL    HW250501   3.422   1.189   5.241 -0.9999  0.4497  0.3292
16354SOL     OW50502   1.964   0.214   7.085 -0.4020  0.1541  0.1655
16354SOL    HW150503   1.924   0.184   7.166 -1.0856  0.3990 -0.0792
16354SOL    HW250504   2.056   0.187   7.092  0.3043  2.6751  2.3078
16355SOL     OW50505   7.731   6.659   1.613 -0.4069 -0.0338  0.3945
16355SOL    HW150506   7.655   6.656   1.670 -0.0884 -3.4668  0.8320
16355SOL    HW250507   7.805   6.671   1.672 -0.4037  1.5197  0.1280
16356SOL     OW50508   6.191   6.792   3.230  0.1341 -1.0365  0.3968
16356SOL    HW150509   6.209   6.746   3.148  1.6771 -0.4271  0.3706
16356SOL    HW250510   6.104   6.830   3.216  0.0093 -1.6511 -0.6296
16357SOL     OW50511   3.850   0.148   4.823 -0.0122 -0.3738  0.2031
16357SOL    HW150512   3.818   0.061   4.799 -0.7391 -0.2661  0.7549
16357SOL    HW250513   3.938   0.152   4.787 -0.4136 -0.8827 -0.8937
16358SOL     OW50514   6.536   0.457   4.014  0.3472  0.5848  0.5037
16358SOL    HW150515   6.501   0.472   4.102  0.0250  1.1859  0.2816
16358SOL    HW250516   6.474   0.501   3.956 -1.3374 -2.6136 -0.3444
16359SOL     OW50517   6.034   0.883   3.477 -0.2803 -0.4014  0.5488
16359SOL    HW150518   5.983   0.906   3.399 -0.3886 -1.6637  0.2305
16359SOL    HW250519   6.008   0.948   3.542 -0.6007  0.3424 -0.2955
16360SOL     OW50520   6.184   1.737   2.622 -0.2602 -0.4364  0.2755
16360SOL    HW150521   6.183   1.740   2.718 -0.8892  1.1554  0.2419
16360SOL    HW250522   6.189   1.829   2.595  0.7335 -0.9031 -1.2263
16361SOL     OW50523   7.873   2.740  11.171 -0.6729  0.0195 -0.4826
16361SOL    HW150524   7.888   2.651  11.138 -0.5069 -0.4711  0.8503
16361SOL    HW250525   7.879   2.796  11.093 -1.8853 -1.2424 -1.5322
16362SOL     OW50526   5.287   7.047   0.430 -0.3140 -0.7888 -0.5732
16362SOL    HW150527   5.244   6.976   0.476 -1.6343  0.7730  0.6903
16362SOL    HW250528   5.232   7.123   0.445  0.9289  0.4836 -2.0733
16363SOL     OW50529   1.713   3.986   5.187 -0.3233  0.4382 -0.1869
16363SOL    HW150530   1.671   3.933   5.255  0.0522 -1.2256 -1.2048
16363SOL    HW250531   1.640   4.017   5.133 -0.8589  3.4653  1.9823
16364SOL     OW50532   3.612   0.293   2.448 -0.0140 -0.2332 -0.1516
16364SOL    HW150533   3.552   0.272   2.377  0.9484 -1.6665 -0.5783
16364SOL    HW250534   3.600   0.222   2.511  1.5258 -0.8063 -0.4532
16365SOL     OW50535   4.540   7.050   4.080  0.0566 -0.2869  0.4561
16365SOL    HW150536   4.453   7.013   4.062 -1.1414  1.3036  2.5566
16365SOL    HW250537   4.544   7.058   4.175  1.9354  1.0370  0.3192
16366SOL     OW50538   2.159   6.552   9.386  0.2700 -0.0219  0.2844
16366SOL    HW150539   2.253   6.550   9.403  0.3146  1.0580  0.2373
16366SOL    HW250540   2.137   6.645   9.385 -0.7162 -0.2467 -0.1772
16367SOL     OW50541   2.968   0.523   7.719 -0.0925  0.1601  0.0564
16367SOL    HW150542   2.997   0.584   7.651 -1.3215  1.4621  0.6388
16367SOL    HW250543   3.047   0.504   7.770  0.1869  1.9882  0.3855
16368SOL     OW50544   2.682   0.777   6.217 -0.5156 -1.0839 -0.2126
16368SOL    HW150545   2.708   0.838   6.287 -0.1452 -0.0830 -1.2026
16368SOL    HW250546   2.589   0.762   6.233 -0.4888 -0.6782  0.3619
16369SOL     OW50547   3.068   5.717   4.607  0.1418 -0.3480 -0.0751
16369SOL    HW150548   2.973   5.721   4.617 -0.1448 -0.6537 -2.2407
16369SOL    HW250549   3.097   5.808   4.618 -1.0842  0.8000 -4.5355
16370SOL     OW50550   6.588   2.082   0.848 -0.2939 -0.2341 -0.4392
16370SOL    HW150551   6.621   2.171   0.833  0.2052 -0.1203  1.0857
16370SOL    HW250552   6.499   2.096   0.882 -1.1495 -0.4503 -2.4680
16371SOL     OW50553   2.829   1.870   8.056 -0.0865  0.0166  0.4787
16371SOL    HW150554   2.922   1.896   8.062 -0.2350  0.6908  0.0237
16371SOL    HW250555   2.803   1.854   8.147  0.2547  0.6375  0.6936
16372SOL     OW50556   6.709   1.314   7.935 -0.7040 -0.1524 -0.1216
16372SOL    HW150557   6.641   1.247   7.949 -0.9632  0.0468 -0.4200
16372SOL    HW250558   6.667   1.395   7.964 -0.9587  0.1387 -1.2879
16373SOL     OW50559   1.887   5.148  11.587  0.3821 -0.3615  0.5965
16373SOL    HW150560   1.829   5.091  11.536  0.1778  1.4008 -1.2925
16373SOL    HW250561   1.831   5.182  11.656 -0.7962  0.9237 -0.8990
16374SOL     OW50562   0.890   5.204   2.250 -0.3341  0.0680  0.2180
16374SOL    HW150563   0.958   5.144   2.283  0.8340  1.6364  0.7566
16374SOL    HW250564   0.858   5.250   2.327 -1.9812 -0.5514 -0.0418
16375SOL     OW50565   4.562   7.450   6.978 -0.2013 -0.3155  0.8773
16375SOL    HW150566   4.592   7.402   6.901  1.0477  1.9701 -0.1662
16375SOL    HW250567   4.479   7.490   6.950 -0.7848 -1.1294  1.4308
16376SOL     OW50568   7.544   4.310   9.296  0.2615 -0.0844 -0.7886
16376SOL    HW150569   7.522   4.336   9.207  1.0157  0.7371 -0.7484
16376SOL    HW250570   7.460   4.313   9.343  0.1878  1.6805 -0.9543
16377SOL     OW50571   1.961   1.732   1.911 -0.1801 -0.1237  0.3546
16377SOL    HW150572   1.885   1.674   1.903  0.1889 -0.5214 -0.3007
16377SOL    HW250573   1.933   1.814   1.871  0.3341 -0.8530 -1.6014
16378SOL     OW50574   7.847   2.380   8.893 -1.2201  0.0458 -0.0410
16378SOL    HW150575   7.791   2.359   8.819 -1.2745  0.2899 -0.0667
16378SOL    HW250576   7.822   2.317   8.961 -2.2724  0.8450  0.3280
16379SOL     OW50577   3.624   4.132   8.326 -0.5516 -0.6549  0.2471
16379SOL    HW150578   3.551   4.109   8.267 -0.3886 -2.3558  0.6418
16379SOL    HW250579   3.582   4.147   8.411 -0.8747  2.5240 -0.3581
16380SOL     OW50580   6.989   5.928   8.961  0.2492  0.3048  0.0069
16380SOL    HW150581   6.968   5.893   8.874  1.3434 -1.8386  0.5313
16380SOL    HW250582   7.040   6.007   8.943 -0.1738  0.3122 -1.2936
16381SOL     OW50583   3.601   2.797   9.749 -0.3219 -0.4894  0.0842
16381SOL    HW150584   3.590   2.808   9.843 -0.3604 -2.0596  0.2987
16381SOL    HW250585   3.677   2.850   9.727  1.1671 -1.9362  1.4595
16382SOL     OW50586   4.700   0.995   8.714 -0.4085 -0.3867  0.1863
16382SOL    HW150587   4.617   1.019   8.674 -1.7570 -5.0387 -0.3960
16382SOL    HW250588   4.755   0.967   8.641 -0.0081 -1.4859  0.8754
16383SOL     OW50589   7.671   7.505   4.347 -0.0125 -0.1144  0.4836
16383SOL    HW150590   7.732   7.531   4.416 -0.9677 -2.3617  2.3205
16383SOL    HW250591   7.718   7.440   4.296 -0.6393 -1.5419  1.6484
16384SOL     OW50592   6.477   1.487  11.711 -0.2776  0.4885 -0.1697
16384SOL    HW150593   6.542   1.545  11.751 -0.8481 -0.3395  2.1039
16384SOL    HW250594   6.503   1.399  11.740 -0.5951 -0.2341 -1.8952
16385SOL     OW50595   4.928   6.452   8.493  0.2584 -0.2540  0.8768
16385SOL    HW150596   4.998   6.461   8.428  1.1596 -2.5644  1.4333
16385SOL    HW250597   4.852   6.493   8.452  1.8986  2.5660  0.3372
16386SOL     OW50598   2.872   4.653  11.614 -0.0166  0.1279 -0.9155
16386SOL    HW150599   2.943   4.589  11.610  0.7478  0.9394 -0.7076
16386SOL    HW250600   2.855   4.676  11.523 -1.2709 -1.3811 -1.1099
16387SOL     OW50601   1.159   7.653   4.009 -0.2287 -0.2255  0.3157
16387SOL    HW150602   1.180   7.615   4.094  0.0490  1.7015  1.1678
16387SOL    HW250603   1.244   7.682   3.975 -0.6763  2.0861  0.9897
16388SOL     OW50604   0.963   5.769  12.091 -0.2732 -0.0377 -0.2161
16388SOL    HW150605   0.957   5.682  12.052 -1.3767 -0.1057  0.0717
16388SOL    HW250606   0.882   5.813  12.064  0.0523  0.7322  0.0365
16389SOL     OW50607   0.079   4.729   4.835  0.1553 -0.2561 -0.9226
16389SOL    HW150608   0.102   4.816   4.866 -0.3038 -0.7109  0.8298
16389SOL    HW250609   0.108   4.727   4.744  0.3602  1.6397 -0.9364
16390SOL     OW50610   1.022   0.618   0.501 -0.3924 -0.5070  0.1117
16390SOL    HW150611   1.007   0.576   0.585 -0.6750 -0.6206  0.0083
16390SOL    HW250612   1.091   0.682   0.517  1.4353 -2.2923 -0.1276
16391SOL     OW50613   6.432   5.380   7.963  0.3708 -0.3000  0.1276
16391SOL    HW150614   6.418   5.446   8.031 -0.2600  0.9213 -1.1366
16391SOL    HW250615   6.344   5.355   7.935  0.4751  2.2103 -2.9763
16392SOL     OW50616   3.132   2.924   0.861  0.2881 -0.2893 -0.5362
16392SOL    HW150617   3.189   3.000   0.867  0.0843 -0.2087  0.6387
16392SOL    HW250618   3.170   2.870   0.791  1.1488  0.2930 -0.5222
16393SOL     OW50619   4.942   7.865   3.529  0.0644 -0.1525 -0.0484
16393SOL    HW150620   4.939   7.771   3.547  0.8454 -0.3491 -0.8942
16393SOL    HW250621   4.941   7.906   3.616  2.4818 -1.0376  0.4798
16394SOL     OW50622   3.673   0.019   0.481  0.2822 -0.0442  0.0587
16394SOL    HW150623   3.628  -0.025   0.409  0.7420 -0.7713  0.1979
16394SOL    HW250624   3.610   0.082   0.515 -0.3976 -0.6029 -0.1546
16395SOL     OW50625   7.745   5.607   4.339 -0.3507 -0.0543 -0.2393
16395SOL    HW150626   7.834   5.638   4.325 -1.0661  1.0943 -3.0368
16395SOL    HW250627   7.716   5.652   4.419  1.1445  0.5459 -0.0089
16396SOL     OW50628   2.769   7.752  12.162  0.0159  0.0786 -0.0376
16396SOL    HW150629   2.864   7.746  12.170 -0.0356 -0.3407  0.2692
16396SOL    HW250630   2.751   7.737  12.069  0.2656  0.3888 -0.1360
16397SOL     OW50631   0.286   7.662   5.433 -0.1874  0.7976 -0.3735
16397SOL    HW150632   0.234   7.742   5.432  0.5846  1.3192 -0.3339
16397SOL    HW250633   0.283   7.632   5.524 -1.6117 -0.0072 -0.6518
16398SOL     OW50634   1.865   5.760   9.325  0.0679 -0.2046 -0.1544
16398SOL    HW150635   1.788   5.814   9.345 -0.1297 -0.1469 -1.0192
16398SOL    HW250636   1.909   5.807   9.255  0.2576 -0.8318 -0.4603
16399SOL     OW50637   6.713   3.008   3.069 -0.1158  0.0529  0.1261
16399SOL    HW150638   6.719   3.077   3.003 -0.6555  0.8781  0.9215
16399SOL    HW250639   6.725   3.053   3.153 -2.5708 -0.4219  0.8156
16400SOL     OW50640   1.745   1.569   1.188 -0.1616  0.8825 -0.7250
16400SOL    HW150641   1.716   1.548   1.276  3.0173 -1.2497  0.0042
16400SOL    HW250642   1.787   1.655   1.196 -1.3140  1.4516 -0.5892
16401SOL     OW50643   1.100   0.654   8.153  0.5499  0.5565  0.3014
16401SOL    HW150644   1.105   0.691   8.065 -0.3784  0.4457  0.1908
16401SOL    HW250645   1.187   0.666   8.189  0.3171  2.7239  0.2307
16402SOL     OW50646   6.029   1.509   2.212  0.0192 -0.2298  0.1452
16402SOL    HW150647   5.951   1.560   2.194  0.3816 -0.1936 -1.5143
16402SOL    HW250648   5.998   1.432   2.260 -0.5836  1.2672  2.3293
16403SOL     OW50649   2.167   4.042   7.350 -0.2639  0.7220  0.1009
16403SOL    HW150650   2.112   4.054   7.273 -2.1432 -0.6807  1.1360
16403SOL    HW250651   2.190   3.949   7.349  2.2295  1.2619 -0.3202
16404SOL     OW50652   1.745   1.833  11.587  0.1170  1.0012 -0.4493
16404SOL    HW150653   1.800   1.755  11.579 -1.2370 -0.0948  0.5773
16404SOL    HW250654   1.759   1.863  11.677 -0.1639  1.3385 -0.5172
16405SOL     OW50655   5.149   3.451   1.477  0.3811  0.1919  0.3648
16405SOL    HW150656   5.191   3.537   1.481  0.7095  0.2695 -2.5235
16405SOL    HW250657   5.209   3.393   1.522  0.7850  1.2345  1.2295
16406SOL     OW50658   4.360   6.302  10.950  0.0991  0.3736  0.4086
16406SOL    HW150659   4.399   6.238  10.891  0.7734  0.8728  0.2955
16406SOL    HW250660   4.315   6.364  10.892  0.0918  0.4197  0.4637
16407SOL     OW50661   5.477   3.115   1.303  0.6548 -0.4020 -0.2403
16407SOL    HW150662   5.546   3.115   1.369  1.2561  0.0107 -0.8525
16407SOL    HW250663   5.443   3.025   1.303  1.6079 -0.7697 -0.3435
16408SOL     OW50664   0.659   1.758   1.862  0.2278 -0.0037 -0.1602
16408SOL    HW150665   0.569   1.732   1.845  0.3777 -0.9841  0.4706
16408SOL    HW250666   0.709   1.721   1.789  0.1775  0.1926 -0.2948
16409SOL     OW50667   2.445   1.258   9.379 -0.1739 -0.2483  0.1387
16409SOL    HW150668   2.472   1.288   9.466 -1.6738 -0.6653  0.7888
16409SOL    HW250669   2.445   1.336   9.325  2.5721 -0.2538 -0.0339
16410SOL     OW50670   6.930   4.012   1.980 -0.3286 -0.1522 -0.2887
16410SOL    HW150671   7.021   3.988   1.991 -0.1378  0.1883 -1.0817
16410SOL    HW250672   6.920   4.093   2.031  0.3747  1.0239 -1.9292
16411SOL     OW50673   3.458   4.429   6.502  0.1128 -0.6403  0.1818
16411SOL    HW150674   3.548   4.455   6.522  0.6874 -0.5159 -2.2150
16411SOL    HW250675   3.466   4.379   6.421 -2.0782  0.2548 -0.6479
16412SOL     OW50676   5.757   0.236   9.073  0.0161  0.1663  0.6719
16412SOL    HW150677   5.724   0.318   9.036  0.8346 -0.0294 -0.5503
16412SOL    HW250678   5.703   0.222   9.150  0.7193  2.5722  1.7160
16413SOL     OW50679   6.017   7.473   2.946 -0.3754  0.3513  0.0329
16413SOL    HW150680   5.955   7.469   3.019  0.0322  0.3492  0.3843
16413SOL    HW250681   5.975   7.425   2.875 -0.0098 -1.2221  0.8408
16414SOL     OW50682   4.545   1.402   5.725 -0.2750 -0.2907 -0.0541
16414SOL    HW150683   4.604   1.471   5.695 -1.0305  0.3578 -0.1184
16414SOL    HW250684   4.533   1.346   5.649  2.9212 -2.4741  0.8576
16415SOL     OW50685   6.307   6.938   2.096  0.2280  0.1044 -0.2779
16415SOL    HW150686   6.259   6.989   2.031 -0.5351 -0.0603  0.1398
16415SOL    HW250687   6.287   6.847   2.074 -0.0729  0.0501  0.2110
16416SOL     OW50688   3.209   5.925   2.534  0.2102 -0.0155  0.0310
16416SOL    HW150689   3.215   5.829   2.539 -0.0963 -0.0724 -0.6045
16416SOL    HW250690   3.207   5.953   2.626  1.1818 -0.5581  0.2337
16417SOL     OW50691   5.565   2.635   4.165  0.4241 -0.3380  0.0078
16417SOL    HW150692   5.597   2.545   4.157 -0.8789 -0.7572 -0.8932
16417SOL    HW250693   5.470   2.627   4.152  0.1901  1.0780  0.6893
16418SOL     OW50694   2.672   3.565   7.082 -0.1750  0.0399  0.5741
16418SOL    HW150695   2.719   3.602   7.008 -0.7343  0.4908  0.4364
16418SOL    HW250696   2.582   3.593   7.070 -0.4174 -0.5176  1.0246
16419SOL     OW50697   6.747   5.779   3.995 -0.7517 -0.4781  0.0832
16419SOL    HW150698   6.728   5.845   3.929  1.1835  1.0727  0.9539
16419SOL    HW250699   6.683   5.795   4.064  0.8233  1.8757  1.1397
16420SOL     OW50700   3.593   0.630  10.202 -0.3346 -0.0634  0.0555
16420SOL    HW150701   3.670   0.652  10.150  0.0094 -0.0295  0.5753
16420SOL    HW250702   3.524   0.617  10.137 -0.1533  0.9405 -0.3560
16421SOL     OW50703   6.408   5.817   1.752  0.0015 -0.0508  0.1559
16421SOL    HW150704   6.368   5.889   1.703  1.3487  0.9068  0.3979
16421SOL    HW250705   6.485   5.794   1.700 -0.2499 -1.1266  0.2452
16422SOL     OW50706   6.013   1.535   0.132  0.4062  0.0478  0.1191
16422SOL    HW150707   5.950   1.605   0.149  0.3867  0.3053 -0.9202
16422SOL    HW250708   6.091   1.581   0.099  0.9576 -0.3087  0.8957
16423SOL     OW50709   1.009   5.428   5.103  0.7814 -0.0978 -0.4030
16423SOL    HW150710   1.032   5.336   5.115  0.4616  0.1187  2.8144
16423SOL    HW250711   0.917   5.433   5.130  0.2712  0.9283 -2.1915
16424SOL     OW50712   2.006   5.423   3.308 -0.0544  0.3527  0.1155
16424SOL    HW150713   1.974   5.361   3.374  0.3218 -1.7170 -1.5142
16424SOL    HW250714   1.927   5.458   3.267 -0.3067 -0.7411 -0.3773
16425SOL     OW50715   5.978   2.843   8.512 -0.0140  0.1521 -0.3565
16425SOL    HW150716   6.049   2.806   8.565  1.1581  0.9595 -1.2880
16425SOL    HW250717   5.899   2.800   8.543  0.9189 -0.9538  0.5646
16426SOL     OW50718   6.390   2.630   6.893 -0.2958  0.4581 -0.2023
16426SOL    HW150719   6.409   2.539   6.916 -0.4948 -0.0336 -1.8515
16426SOL    HW250720   6.402   2.678   6.975 -2.7707 -1.4097  1.4236
16427SOL     OW50721   0.605   7.257  11.291 -0.3863 -0.3685 -0.9054
16427SOL    HW150722   0.642   7.298  11.212  1.7502  0.1337  0.2640
16427SOL    HW250723   0.617   7.323  11.359 -2.4688 -0.6744 -0.1872
16428SOL     OW50724   5.049   5.871   1.634 -0.2501  0.0404 -0.0736
16428SOL    HW150725   5.100   5.940   1.592 -0.0395 -0.7429 -1.1336
16428SOL    HW250726   4.963   5.875   1.592 -0.7343  0.6436  0.9429
16429SOL     OW50727   6.056   4.684   2.667  0.3713  0.5281  0.0038
16429SOL    HW150728   6.014   4.766   2.643  0.6804  0.3709 -1.1139
16429SOL    HW250729   6.145   4.691   2.632  1.0301  0.5053  1.5809
16430SOL     OW50730   1.374   3.600   7.063 -0.4291 -0.4628  0.3672
16430SOL    HW150731   1.322   3.524   7.087  0.4812 -1.0574  0.4951
16430SOL    HW250732   1.360   3.611   6.969 -0.2185 -1.0586  0.2661
16431SOL     OW50733   1.319   4.510   5.991  0.0733 -0.0529  0.2690
16431SOL    HW150734   1.322   4.480   5.901 -2.6579 -0.8497  0.3386
16431SOL    HW250735   1.303   4.604   5.984  0.1126 -0.0718 -0.0757
16432SOL     OW50736   3.541   3.949  11.675  0.7984  0.2706  0.1187
16432SOL    HW150737   3.564   3.960  11.768 -0.5437  1.1287  0.3836
16432SOL    HW250738   3.519   3.856  11.667 -2.7470  0.7993  1.6339
16433SOL     OW50739   2.665   1.491   7.163  0.4924  0.6331  0.5112
16433SOL    HW150740   2.582   1.445   7.144  0.1112  1.3745  0.3566
16433SOL    HW250741   2.638   1.572   7.205  1.1209  1.0894  0.0390
16434SOL     OW50742   3.276   0.935   0.840  0.0853  0.2941 -0.2168
16434SOL    HW150743   3.252   0.854   0.884  0.1585  0.3542 -0.0652
16434SOL    HW250744   3.193   0.983   0.830  0.1000  0.3777  0.0535
16435SOL     OW50745   7.583   5.888   8.245 -0.2232 -0.5315  0.5231
16435SOL    HW150746   7.556   5.862   8.333 -1.8002 -1.0496 -0.0868
16435SOL    HW250747   7.503   5.888   8.194  0.3385  1.6051 -0.5042
16436SOL     OW50748   5.315   4.209   4.673  1.0167  0.2304  0.2354
16436SOL    HW150749   5.273   4.126   4.648 -1.5718  0.7890  2.3031
16436SOL    HW250750   5.389   4.182   4.727  0.4399 -0.7868  0.5605
16437SOL     OW50751   0.817   0.145   6.372  0.5007 -0.0901 -0.2720
16437SOL    HW150752   0.859   0.194   6.443  0.9314  0.3354 -0.8100
16437SOL    HW250753   0.724   0.166   6.382  0.7000  1.0088 -0.6087
16438SOL     OW50754   4.655   0.839   3.505 -0.0560 -0.3211 -0.3804
16438SOL    HW150755   4.642   0.794   3.421 -0.6588  0.6612 -0.8246
16438SOL    HW250756   4.643   0.931   3.485 -0.9527 -0.1355  0.9312
16439SOL     OW50757   7.293   2.959  11.442 -0.1035  0.1049  0.2721
16439SOL    HW150758   7.342   3.008  11.508 -0.8048  0.3639  0.6063
16439SOL    HW250759   7.336   2.982  11.359  2.9063 -2.7075  0.8392
16440SOL     OW50760   1.063   6.376   5.745  0.4611  0.6345 -0.3705
16440SOL    HW150761   1.049   6.467   5.722 -0.3049  0.6146  0.0070
16440SOL    HW250762   1.037   6.327   5.666 -0.4937  0.6647 -0.0795
16441SOL     OW50763   1.844   3.139  10.351  0.3122  0.1113  0.2403
16441SOL    HW150764   1.827   3.046  10.369 -0.4904  0.6160  2.3928
16441SOL    HW250765   1.768   3.168  10.301 -0.3446 -0.0140  1.1253
16442SOL     OW50766   6.525   0.939  11.679  0.1169  0.8747  0.4499
16442SOL    HW150767   6.483   0.979  11.755 -1.4174  2.1908 -1.0318
16442SOL    HW250768   6.484   0.852  11.672  0.2531  0.7521  1.0948
16443SOL     OW50769   5.607   7.193   9.577  0.5273  0.2456  0.3197
16443SOL    HW150770   5.637   7.221   9.490  1.7340 -1.0700  0.2605
16443SOL    HW250771   5.666   7.238   9.638  0.8624 -0.2287  0.3509
16444SOL     OW50772   4.564   7.123   8.109 -0.3259  0.0755  0.1339
16444SOL    HW150773   4.495   7.122   8.175 -1.0045 -2.1986 -0.5074
16444SOL    HW250774   4.645   7.120   8.159 -0.7899 -0.1423  0.8970
16445SOL     OW50775   5.573   2.764   2.829  0.1613  0.2495 -0.4424
16445SOL    HW150776   5.588   2.756   2.923 -1.1579  0.2244 -0.2171
16445SOL    HW250777   5.521   2.844   2.820 -1.5627 -0.8658 -0.9005
16446SOL     OW50778   7.616   6.825  11.777 -0.4165  0.1580 -0.7191
16446SOL    HW150779   7.533   6.780  11.767 -0.4169 -0.1345  0.4255
16446SOL    HW250780   7.681   6.765  11.740 -0.3807 -0.9775  1.0364
16447SOL     OW50781   6.164   1.244   6.188 -0.0105  0.0832 -0.2607
16447SOL    HW150782   6.089   1.302   6.203  0.2682  0.8098 -1.5297
16447SOL    HW250783   6.137   1.160   6.225 -1.4585  0.3361 -0.6798
16448SOL     OW50784   4.944   5.049   8.209 -0.6179 -0.4729  0.5007
16448SOL    HW150785   4.957   4.979   8.273  0.9909 -0.2050  0.5111
16448SOL    HW250786   4.854   5.037   8.178 -0.7002 -1.9326  1.2191
16449SOL     OW50787   5.714   1.833  10.200 -0.0491  0.3947 -0.7783
16449SOL    HW150788   5.732   1.796  10.114  0.5422  1.1372 -0.9927
16449SOL    HW250789   5.619   1.845  10.203 -0.5657 -2.9739  0.0952
16450SOL     OW50790   2.061   4.861  11.103  0.0262 -0.2966  0.3848
16450SOL    HW150791   2.059   4.949  11.141  0.8068  0.1017 -0.4771
16450SOL    HW250792   2.082   4.803  11.177  3.1793  0.6240  0.3221
16451SOL     OW50793   3.391   0.536   4.118  0.2807 -0.2357  0.0961
16451SOL    HW150794   3.483   0.553   4.137  0.6195 -1.4973 -0.3687
16451SOL    HW250795   3.352   0.519   4.204  0.3518  0.8077  0.3508
16452SOL     OW50796   7.059   7.912   9.718  0.1838  0.0394  0.0518
16452SOL    HW150797   7.005   7.845   9.676 -1.7511  0.5826  1.5643
16452SOL    HW250798   7.008   7.993   9.711  2.0154  1.1964 -0.8197
16453SOL     OW50799   2.693   6.545   9.652  0.3025 -0.1324  0.5608
16453SOL    HW150800   2.598   6.554   9.663  0.3908  1.3987  0.2191
16453SOL    HW250801   2.729   6.628   9.682  1.4025 -0.0148 -0.9595
16454SOL     OW50802   0.670   7.184   1.053 -0.3402  0.4087  0.3515
16454SOL    HW150803   0.747   7.132   1.073 -0.9956 -0.3845  0.8460
16454SOL    HW250804   0.662   7.244   1.128 -0.8914 -0.3320  0.9014
16455SOL     OW50805   6.944   1.121   7.357  0.1371 -0.1226 -0.6323
16455SOL    HW150806   7.018   1.175   7.383  0.5775 -1.0702  0.1562
16455SOL    HW250807   6.899   1.100   7.439  0.4102 -1.5420 -0.8069
16456SOL     OW50808   3.824   7.839  10.903 -0.1327 -0.4082  0.2591
16456SOL    HW150809   3.835   7.768  10.966  0.4187  0.0322  0.6749
16456SOL    HW250810   3.888   7.906  10.931 -0.7238  0.3004 -0.0509
16457SOL     OW50811   5.810   5.968   6.741  0.3411  0.0289  0.1076
16457SOL    HW150812   5.814   6.013   6.825 -2.2952  0.7602 -0.0336
16457SOL    HW250813   5.749   5.896   6.755  1.6555 -1.2575 -0.6213
16458SOL     OW50814   6.518   1.987   2.122  0.0964 -0.1746 -0.0803
16458SOL    HW150815   6.464   1.937   2.184 -0.6281  0.1020 -0.4749
16458SOL    HW250816   6.547   1.923   2.057 -3.0977  0.2931 -2.1752
16459SOL     OW50817   2.650   6.528   6.380  0.2504  0.2227 -0.0846
16459SOL    HW150818   2.619   6.610   6.420  0.0082 -0.4047  1.0685
16459SOL    HW250819   2.634   6.461   6.447 -0.5944 -0.9736 -1.4313
16460SOL     OW50820   5.666   1.172   0.296 -0.0685  0.2064  1.0435
16460SOL    HW150821   5.652   1.097   0.355 -1.1346 -0.8804 -0.4904
16460SOL    HW250822   5.758   1.195   0.308  0.3358 -1.4480  1.4759
16461SOL     OW50823   3.749   6.416   9.110 -0.5758  0.0756 -0.2552
16461SOL    HW150824   3.665   6.410   9.065 -0.1316  0.9048 -1.2230
16461SOL    HW250825   3.726   6.427   9.203 -1.5002 -1.2398 -0.3177
16462SOL     OW50826   3.944   4.075   1.433 -0.5268 -0.5668 -0.3266
16462SOL    HW150827   3.985   4.115   1.357  1.6370 -0.3406  0.8998
16462SOL    HW250828   4.006   4.008   1.462 -0.4298  0.5151  2.2463
16463SOL     OW50829   2.778   6.031   3.764  0.4603 -0.5096 -0.1766
16463SOL    HW150830   2.774   6.119   3.727 -1.4245 -0.9481 -1.0916
16463SOL    HW250831   2.866   6.025   3.802  0.3542  2.0292  0.6035
16464SOL     OW50832   1.519   2.735  12.339 -0.3410 -0.2698 -0.0464
16464SOL    HW150833   1.583   2.668  12.314  1.0929  0.3912  1.6705
16464SOL    HW250834   1.438   2.685  12.354 -0.1701 -1.1791 -1.7762
16465SOL     OW50835   1.089   0.456   9.776 -0.0403 -0.0365 -0.4268
16465SOL    HW150836   1.004   0.479   9.815 -0.4461  1.1551 -1.9365
16465SOL    HW250837   1.075   0.461   9.682  1.7080  0.1332 -0.7148
16466SOL     OW50838   0.684   7.603   6.411  0.2093 -0.8525  0.6709
16466SOL    HW150839   0.772   7.597   6.449  0.2554  0.0166  0.7192
16466SOL    HW250840   0.660   7.695   6.420  0.1987 -0.6067 -1.3543
16467SOL     OW50841   7.823   5.156  10.661  0.0547 -0.1408  0.2197
16467SOL    HW150842   7.858   5.191  10.743 -0.6487 -2.4192  1.5752
16467SOL    HW250843   7.835   5.062  10.668 -3.3212 -0.7647 -0.6516
16468SOL     OW50844   5.247   0.402  11.618 -0.4950 -0.7220  0.9315
16468SOL    HW150845   5.286   0.320  11.587 -0.7363 -0.7724  0.7606
16468SOL    HW250846   5.194   0.377  11.694 -2.4079 -1.1074 -0.4537
16469SOL     OW50847   4.277   7.497   7.732  0.0947 -0.7319  0.1790
16469SOL    HW150848   4.249   7.532   7.816 -0.9450 -1.1261  0.0067
16469SOL    HW250849   4.267   7.402   7.740  1.5242 -0.9140  0.1440
16470SOL     OW50850   1.966   7.387   6.522 -0.4386 -0.5001 -0.6279
16470SOL    HW150851   1.954   7.449   6.450  1.6935 -0.8836 -1.3892
16470SOL    HW250852   2.014   7.314   6.483  1.8758 -0.1834  1.3986
16471SOL     OW50853   0.365   5.713  11.572 -0.0674 -0.1040 -0.1997
16471SOL    HW150854   0.439   5.658  11.547 -0.5631 -2.1353  2.3901
16471SOL    HW250855   0.405   5.790  11.612  0.6164  0.9741 -2.7642
16472SOL     OW50856   4.834   2.181   7.917 -0.0536 -0.7094  0.3459
16472SOL    HW150857   4.777   2.144   7.984 -1.2137 -1.9910 -1.2924
16472SOL    HW250858   4.822   2.276   7.925 -0.8146 -0.8777  1.3808
16473SOL     OW50859   4.986   1.079   9.187  0.2328  0.0001  0.8471
16473SOL    HW150860   4.953   1.104   9.101 -2.3609  0.9548  1.9864
16473SOL    HW250861   5.007   0.986   9.179 -1.9345 -0.4516 -0.3289
16474SOL     OW50862   5.087   1.872   7.671  0.1730 -0.8975 -0.4130
16474SOL    HW150863   5.147   1.876   7.746  0.3994  0.3876 -0.6387
16474SOL    HW250864   5.143   1.850   7.597  0.3135 -0.0801 -0.5570
16475SOL     OW50865   4.265   6.010   7.281 -0.0462  0.2850  0.3720
16475SOL    HW150866   4.319   6.015   7.359  0.9087  0.4933 -0.2856
16475SOL    HW250867   4.327   6.000   7.209 -0.9389 -0.9445 -0.2807
16476SOL     OW50868   0.780   7.209   6.442  0.3275 -0.1761  0.6998
16476SOL    HW150869   0.847   7.214   6.511  0.1620  0.9212  0.7884
16476SOL    HW250870   0.706   7.260   6.476 -0.2424 -0.6820  0.2409
16477SOL     OW50871   2.628   6.399   1.508  0.3576  0.3003 -0.1585
16477SOL    HW150872   2.622   6.493   1.494 -0.6884  0.5825  1.8030
16477SOL    HW250873   2.567   6.361   1.444  0.5100  0.9762 -0.7095
16478SOL     OW50874   7.904   4.335  10.138  0.5882  0.3337  0.0325
16478SOL    HW150875   7.859   4.293  10.211  1.3895  0.7631  0.7845
16478SOL    HW250876   7.971   4.272  10.112  0.8136  0.5146  0.1777
16479SOL     OW50877   4.009   7.124   0.200 -0.2226  0.4729  0.5909
16479SOL    HW150878   4.054   7.208   0.194  0.0983  0.2609  0.0001
16479SOL    HW250879   4.066   7.062   0.154  0.7754 -0.5968  3.0809
16480SOL     OW50880   5.556   2.315   6.138 -0.3377 -0.2647 -0.2859
16480SOL    HW150881   5.488   2.336   6.202 -0.2749 -0.0943 -0.2755
16480SOL    HW250882   5.528   2.231   6.100 -1.7877  0.9144 -1.9680
16481SOL     OW50883   4.870   6.012   0.251 -0.0286  0.8349 -0.7023
16481SOL    HW150884   4.902   5.978   0.335 -0.6927 -0.0762 -0.8070
16481SOL    HW250885   4.881   6.107   0.259  0.8249  0.6879  0.0311
16482SOL     OW50886   4.338   3.354   0.910 -0.4283  0.0050 -0.5410
16482SOL    HW150887   4.390   3.395   0.841  0.6965  0.0845  0.3102
16482SOL    HW250888   4.387   3.276   0.934  0.9875  1.5708  2.2831
16483SOL     OW50889   6.054   5.638   2.671 -0.2104 -0.5105 -0.8603
16483SOL    HW150890   5.979   5.626   2.729  0.7447 -0.1512  0.5014
16483SOL    HW250891   6.024   5.608   2.585 -2.0825  0.1579 -0.4786
16484SOL     OW50892   3.452   5.137   6.259  0.2467  0.5193  0.0154
16484SOL    HW150893   3.503   5.074   6.310 -0.1561 -0.1383 -0.3792
16484SOL    HW250894   3.405   5.188   6.324 -2.4921 -2.1394  0.3321
16485SOL     OW50895   4.364   6.139   8.432 -0.0547  0.4900  0.0128
16485SOL    HW150896   4.327   6.108   8.515  1.2349  0.2973  0.5392
16485SOL    HW250897   4.304   6.208   8.404 -0.8142  0.1860  0.8193
16486SOL     OW50898   7.333   5.036   4.635  0.2201  0.2748  0.3306
16486SOL    HW150899   7.246   5.030   4.675  0.0722  0.2809  0.0108
16486SOL    HW250900   7.384   5.088   4.697  0.0744  0.0396  0.6527
16487SOL     OW50901   1.140   0.884  10.687  0.3389  0.0122  0.7689
16487SOL    HW150902   1.130   0.867  10.781 -1.2188  1.6079  0.9456
16487SOL    HW250903   1.058   0.853  10.649  0.6498  0.0813  0.0276
16488SOL     OW50904   1.871   1.306   1.010 -0.0391 -0.2709 -0.1786
16488SOL    HW150905   1.848   1.221   0.973  0.0124 -0.8696  1.1111
16488SOL    HW250906   1.867   1.293   1.105  1.5348  0.7282  0.0672
16489SOL     OW50907   6.545   3.284   5.901  0.5635  0.1000  0.3814
16489SOL    HW150908   6.533   3.299   5.995 -0.3801 -0.3354  0.3433
16489SOL    HW250909   6.469   3.232   5.876 -0.6216  2.4070 -1.1368
16490SOL     OW50910   6.913   2.248  11.759  0.2853  0.1368  0.1424
16490SOL    HW150911   6.874   2.166  11.791 -1.4844 -0.3769 -2.9568
16490SOL    HW250912   6.992   2.219  11.713  0.2151  0.2835 -0.0701
16491SOL     OW50913   2.252   3.517   9.538 -0.3439  0.2026  0.2070
16491SOL    HW150914   2.335   3.522   9.491  0.6529 -2.4677  1.4838
16491SOL    HW250915   2.271   3.556   9.624 -0.5288  0.0198  0.3327
16492SOL     OW50916   2.561   1.169   6.426  0.0470 -0.4493  0.3236
16492SOL    HW150917   2.599   1.083   6.405 -2.6490 -1.6151 -0.2174
16492SOL    HW250918   2.472   1.149   6.454 -1.4448  2.3284 -1.9363
16493SOL     OW50919   0.695   7.566   4.725 -0.3334 -0.0653 -0.2125
16493SOL    HW150920   0.695   7.610   4.640 -1.1081  2.0525  0.8356
16493SOL    HW250921   0.602   7.556   4.747 -0.1459  0.6773  0.9992
16494SOL     OW50922   0.101   3.578   7.055 -0.4376  0.6045 -0.2150
16494SOL    HW150923   0.073   3.630   6.980 -0.6109 -0.2840 -0.7851
16494SOL    HW250924   0.112   3.489   7.020  1.5211  0.5807  0.3506
16495SOL     OW50925   0.637   2.367  10.245 -0.1445  0.0113  0.3527
16495SOL    HW150926   0.711   2.312  10.219 -0.8081 -0.7556  0.0932
16495SOL    HW250927   0.608   2.331  10.328  0.2044  0.7513  0.8119
16496SOL     OW50928   0.957   2.310  10.522 -0.5402 -0.3861  0.1395
16496SOL    HW150929   1.012   2.282  10.449 -0.7678  1.6163 -0.8803
16496SOL    HW250930   0.868   2.301  10.489 -0.6444  0.5379  0.1296
16497SOL     OW50931   1.077   7.362   0.637 -0.0632 -0.0403  0.3094
16497SOL    HW150932   1.070   7.279   0.590 -1.6735 -0.2013  0.7790
16497SOL    HW250933   1.170   7.383   0.635  0.1120 -0.7930 -1.6511
16498SOL     OW50934   4.018   0.891   4.174 -0.4627 -0.4999 -0.3145
16498SOL    HW150935   4.057   0.977   4.182 -0.0776 -0.7363  0.5098
16498SOL    HW250936   3.987   0.871   4.262 -0.7374 -1.1119 -0.5447
16499SOL     OW50937   6.379   4.577   6.305 -0.6720 -0.0715 -0.3939
16499SOL    HW150938   6.470   4.581   6.275 -0.3604 -0.3667  0.4674
16499SOL    HW250939   6.385   4.596   6.399 -1.7653  2.3299 -0.7310
16500SOL     OW50940   6.200   7.479   9.780  0.2001 -0.6839 -0.2839
16500SOL    HW150941   6.163   7.492   9.867  0.1464  0.3765 -0.4487
16500SOL    HW250942   6.126   7.451   9.726  0.0934 -0.7044 -0.1248
16501SOL     OW50943   1.954   1.892  12.186 -0.0230  0.3257  0.8608
16501SOL    HW150944   2.009   1.964  12.216 -1.1185  0.4728  2.6156
16501SOL    HW250945   1.882   1.935  12.139 -0.5701  0.3956  1.7367
16502SOL     OW50946   7.464   6.247  12.308 -0.3625  0.0970  0.2009
16502SOL    HW150947   7.525   6.231  12.236 -0.8669  3.1125 -1.0655
16502SOL    HW250948   7.519   6.282  12.378 -0.2210 -0.2258  0.2500
16503SOL     OW50949   3.717   3.395   4.553 -0.1618  0.4802 -0.2984
16503SOL    HW150950   3.784   3.447   4.597 -0.5936 -0.1483  1.1696
16503SOL    HW250951   3.635   3.418   4.597 -0.9490  1.1495 -1.9833
16504SOL     OW50952   7.558   3.679   6.690  0.5048  0.0258  0.3879
16504SOL    HW150953   7.625   3.747   6.693 -0.8444  1.4389 -0.0633
16504SOL    HW250954   7.495   3.705   6.756  0.1693 -1.0351  0.4995
16505SOL     OW50955   6.957   2.638   4.013 -0.0902  0.1879  0.3893
16505SOL    HW150956   6.884   2.697   3.993 -2.0333 -1.8429  1.0050
16505SOL    HW250957   6.976   2.655   4.106  0.7265  1.1844  0.0594
16506SOL     OW50958   4.918   7.913   6.711 -0.5203 -0.2120  0.4310
16506SOL    HW150959   4.851   7.864   6.663  0.0300 -0.4977 -0.0467
16506SOL    HW250960   4.994   7.913   6.654 -0.7164  1.8384  0.0861
16507SOL     OW50961   0.344   6.188   1.067 -0.1647 -0.1629 -0.0124
16507SOL    HW150962   0.348   6.094   1.047 -1.0236 -0.0869 -0.6453
16507SOL    HW250963   0.270   6.219   1.015  1.2407  1.2259 -1.2640
16508SOL     OW50964   1.920   2.133  10.691 -0.7250 -0.4465 -0.7267
16508SOL    HW150965   1.887   2.138  10.601 -1.2543 -2.0137 -0.6603
16508SOL    HW250966   2.015   2.129  10.682 -0.7284  0.3202 -1.1534
16509SOL     OW50967   4.541   7.698   7.894 -0.5130  0.5889  0.2219
16509SOL    HW150968   4.627   7.702   7.853 -0.5826 -1.0009 -0.1032
16509SOL    HW250969   4.481   7.738   7.830 -0.4238 -0.7237 -0.7088
16510SOL     OW50970   6.355   2.787   0.504  0.6703  0.3355  0.2268
16510SOL    HW150971   6.305   2.720   0.551 -1.7209  1.3822 -0.6697
16510SOL    HW250972   6.337   2.770   0.412  0.3310  1.9549 -0.0272
16511SOL     OW50973   2.186   5.255   4.017 -0.6017 -0.5664  0.5141
16511SOL    HW150974   2.096   5.243   3.989 -0.7923 -1.7964  1.5781
16511SOL    HW250975   2.192   5.348   4.041 -0.8864  0.1188 -1.8370
16512SOL     OW50976   4.386   0.700   9.779 -0.5232  0.2376  0.4412
16512SOL    HW150977   4.364   0.676   9.689 -1.8999 -0.5851  0.9698
16512SOL    HW250978   4.480   0.682   9.786 -0.2229  1.0736 -1.0469
16513SOL     OW50979   0.932   3.926   3.763 -0.7323 -0.2406  0.2108
16513SOL    HW150980   1.001   3.936   3.829 -1.1434 -0.5464  0.6859
16513SOL    HW250981   0.980   3.918   3.680 -0.2086 -0.0587  0.4908
16514SOL     OW50982   6.588   0.639   4.754  0.4180  0.0823  0.4623
16514SOL    HW150983   6.595   0.689   4.673 -0.0758  2.1688  1.6559
16514SOL    HW250984   6.632   0.692   4.820 -0.8835 -0.6148  1.9779
16515SOL     OW50985   6.285   0.427  11.092  0.1917  0.1265 -0.3679
16515SOL    HW150986   6.219   0.420  11.023 -0.2247  1.9668 -0.2104
16515SOL    HW250987   6.352   0.363  11.068 -0.8680 -0.6426 -1.4061
16516SOL     OW50988   4.813   7.879   5.925 -0.4825  0.1825 -0.0277
16516SOL    HW150989   4.906   7.865   5.944 -0.6203 -1.0686 -0.1860
16516SOL    HW250990   4.767   7.812   5.976 -1.3900  1.4132  0.8144
16517SOL     OW50991   0.820   1.918   8.994  0.6121  0.7026  0.3475
16517SOL    HW150992   0.772   1.935   9.075  1.1930  0.8421  0.6685
16517SOL    HW250993   0.912   1.917   9.021  0.7156 -1.2771  0.0606
16518SOL     OW50994   4.838   2.527   5.505  0.0893  0.1590 -0.7109
16518SOL    HW150995   4.893   2.578   5.564  0.6925 -2.2191  0.9427
16518SOL    HW250996   4.899   2.477   5.451 -0.2299 -2.9643  1.5517
16519SOL     OW50997   3.757   1.113   1.954  0.4343  0.0550  0.0686
16519SOL    HW150998   3.747   1.037   2.011  0.1452  0.7479  0.9678
16519SOL    HW250999   3.688   1.103   1.889 -1.3224  0.8541  1.7207
16520SOL     OW51000   3.699   6.329  11.760  0.5847 -0.2599 -0.4028
16520SOL    HW151001   3.608   6.314  11.786  0.3017 -0.2634 -1.3668
16520SOL    HW251002   3.694   6.396  11.692  1.1797 -1.1784 -1.3853
16521SOL     OW51003   5.238   7.164   5.258  0.3006 -0.4987 -0.1318
16521SOL    HW151004   5.191   7.181   5.340  1.1024 -1.5658  0.5718
16521SOL    HW251005   5.186   7.210   5.192 -0.2755  0.5255  0.9795
16522SOL     OW51006   5.786   2.410  11.179  1.0103  0.0517 -0.2100
16522SOL    HW151007   5.793   2.322  11.215 -1.1233  0.2933  0.9274
16522SOL    HW251008   5.830   2.405  11.094 -0.2152 -2.4655 -0.7634
16523SOL     OW51009   5.331   1.704   9.272  0.4843 -0.2113  0.7155
16523SOL    HW151010   5.241   1.683   9.250 -0.2048  2.3465  0.9106
16523SOL    HW251011   5.381   1.678   9.195 -0.4083 -1.4820  0.5376
16524SOL     OW51012   0.819   0.716   3.044  0.8114  0.0517 -0.0869
16524SOL    HW151013   0.814   0.812   3.037 -0.5240 -0.0058 -0.1409
16524SOL    HW251014   0.901   0.693   3.000  0.7786  1.1131 -0.7366
16525SOL     OW51015   7.626   3.976   2.075 -0.4119 -0.3183  0.1668
16525SOL    HW151016   7.580   4.050   2.037  1.1377  0.6602  0.1495
16525SOL    HW251017   7.644   3.918   2.001  0.9120  0.6757 -0.3201
16526SOL     OW51018   3.223   4.226   3.870  0.1064 -0.6495 -0.3341
16526SOL    HW151019   3.217   4.132   3.887 -0.8264 -0.4892  0.3531
16526SOL    HW251020   3.212   4.235   3.776 -2.2507 -1.0991 -0.1706
16527SOL     OW51021   5.759   4.256   3.069  0.2634  0.1440 -0.0880
16527SOL    HW151022   5.666   4.234   3.070  0.5631 -1.2696 -0.8503
16527SOL    HW251023   5.770   4.318   3.142 -1.1983  0.0795  0.2171
16528SOL     OW51024   3.882   2.502  11.905  0.5277 -0.2080 -0.4436
16528SOL    HW151025   3.846   2.551  11.831  0.9242 -0.8167 -1.0530
16528SOL    HW251026   3.898   2.568  11.972 -0.4203  0.2692 -0.6658
16529SOL     OW51027   4.927   5.741   9.001 -0.2554 -0.5312 -0.2007
16529SOL    HW151028   4.832   5.736   9.002 -0.2493 -1.0429  1.6229
16529SOL    HW251029   4.946   5.833   8.983 -1.0811 -0.4924 -0.9260
16530SOL     OW51030   2.103   6.009   5.170 -0.1841  0.2147  0.5323
16530SOL    HW151031   2.119   6.053   5.086  2.2849 -0.6860  0.4667
16530SOL    HW251032   2.144   5.923   5.161 -2.6914 -1.2030  1.5680
16531SOL     OW51033   1.965   3.870  10.045  0.5112 -0.0551  0.1738
16531SOL    HW151034   2.040   3.860  10.104 -0.3456 -0.8720  1.1570
16531SOL    HW251035   1.899   3.917  10.096  0.5802  1.3182 -0.9206
16532SOL     OW51036   1.493   4.787   3.774  0.2098  0.1185  1.1851
16532SOL    HW151037   1.476   4.823   3.687  0.9367  0.5390  1.2127
16532SOL    HW251038   1.540   4.706   3.758 -0.4151 -0.2497  1.1651
16533SOL     OW51039   1.880   6.487   5.687 -0.9131  0.3084  0.0731
16533SOL    HW151040   1.896   6.489   5.782 -1.7517  0.6086  0.2147
16533SOL    HW251041   1.962   6.518   5.649  0.3119 -2.1218  0.5725
16534SOL     OW51042   3.339   7.770   1.069  0.3626 -0.7212 -0.2869
16534SOL    HW151043   3.347   7.676   1.052  0.0414 -0.7072 -0.5226
16534SOL    HW251044   3.324   7.776   1.163 -0.3333 -0.9483 -0.3790
16535SOL     OW51045   1.611   6.676   7.328  0.0549 -0.3348  0.7369
16535SOL    HW151046   1.683   6.701   7.386 -0.1887  0.3900  0.7330
16535SOL    HW251047   1.648   6.607   7.273  1.0375  0.6701  0.0998
16536SOL     OW51048   0.006   5.686  11.814  0.1624  0.0243 -0.1930
16536SOL    HW151049  -0.020   5.595  11.823  0.4322 -0.1259 -0.9110
16536SOL    HW251050   0.094   5.690  11.850  0.7542 -0.3250 -1.5259
16537SOL     OW51051   0.975   0.670   1.390 -0.3551  0.1553 -0.5835
16537SOL    HW151052   0.974   0.692   1.297 -0.2587  1.1048 -0.3698
16537SOL    HW251053   0.943   0.580   1.394 -0.6008  0.1936 -1.5141
16538SOL     OW51054   6.335   0.355   0.055 -0.3422  0.2707 -0.4477
16538SOL    HW151055   6.353   0.434   0.107  1.8852 -0.9330  0.7397
16538SOL    HW251056   6.382   0.285   0.100 -2.1421 -1.7547 -1.5388
16539SOL     OW51057   3.868   5.313   8.436  0.0069 -0.0939  0.0113
16539SOL    HW151058   3.842   5.221   8.436 -0.3948 -0.0577 -2.2125
16539SOL    HW251059   3.912   5.325   8.352  1.5586  1.3692  0.9698
16540SOL     OW51060   1.472   4.209   0.305  0.5301  0.0438 -0.2668
16540SOL    HW151061   1.454   4.149   0.377  1.7800 -1.1862 -0.9170
16540SOL    HW251062   1.386   4.238   0.275 -0.1759 -1.9536 -0.3384
16541SOL     OW51063   2.036   3.400   7.559  0.0373  0.7018 -0.0785
16541SOL    HW151064   2.103   3.468   7.559  0.0076  0.8652 -2.9239
16541SOL    HW251065   2.068   3.334   7.620  1.5837  1.8488  0.4162
16542SOL     OW51066   4.648   3.454   0.848  0.2231 -0.4781 -0.0185
16542SOL    HW151067   4.738   3.486   0.841  0.0833  0.0545  0.5639
16542SOL    HW251068   4.623   3.470   0.939 -1.3530  1.8282 -0.7364
16543SOL     OW51069   2.819   7.341   3.972  0.4311 -0.0993  0.3472
16543SOL    HW151070   2.746   7.320   4.030  0.4965 -0.1266  0.4185
16543SOL    HW251071   2.880   7.268   3.981 -0.1423 -0.7424 -0.7132
16544SOL     OW51072   1.213   1.047   4.302  0.2508  0.4244  0.3866
16544SOL    HW151073   1.302   1.013   4.307  0.0520  0.0323  1.8292
16544SOL    HW251074   1.177   1.032   4.390 -1.0947  0.9568 -0.0502
16545SOL     OW51075   4.451   2.386   4.773  0.0173 -0.4660  0.6572
16545SOL    HW151076   4.389   2.445   4.817  0.7918  1.1115 -0.2825
16545SOL    HW251077   4.409   2.301   4.776 -1.9939  0.4636  0.4657
16546SOL     OW51078   7.438   2.566   7.252 -0.1471 -0.2523 -0.7533
16546SOL    HW151079   7.474   2.483   7.222 -1.2576 -1.1559  0.2914
16546SOL    HW251080   7.364   2.541   7.308 -1.0650  1.4629 -1.1396
16547SOL     OW51081   5.366   2.752   6.822  0.3302  0.4567 -0.2931
16547SOL    HW151082   5.440   2.778   6.767  0.2906 -0.2418 -0.6838
16547SOL    HW251083   5.358   2.823   6.885  1.1605  0.6744 -0.4161
16548SOL     OW51084   2.270   6.911   2.031 -0.1834 -0.0429 -0.7536
16548SOL    HW151085   2.359   6.945   2.043  0.6086 -2.6443  1.9520
16548SOL    HW251086   2.268   6.881   1.940  2.4962 -1.7666 -0.3565
16549SOL     OW51087   5.697   7.416   9.790 -0.1930  0.1428 -0.1290
16549SOL    HW151088   5.782   7.395   9.829 -0.1543 -2.7374 -1.5780
16549SOL    HW251089   5.633   7.384   9.853 -0.1901  0.1164 -0.1394
16550SOL     OW51090   4.021   6.843   8.941  0.5866  0.4247  0.1370
16550SOL    HW151091   3.947   6.821   8.997 -0.5529 -0.0167 -1.4616
16550SOL    HW251092   4.019   6.939   8.935 -0.4238  0.3728 -0.5909
16551SOL     OW51093   0.852   5.563   6.469 -0.0305  0.1974  0.7827
16551SOL    HW151094   0.897   5.479   6.467  0.6145  0.5402  0.7907
16551SOL    HW251095   0.894   5.612   6.539  0.8460  1.2029 -0.3957
16552SOL     OW51096   3.788   6.503  12.270 -0.2705 -0.1571  0.5900
16552SOL    HW151097   3.881   6.505  12.247 -0.2348  0.7195  0.7511
16552SOL    HW251098   3.748   6.446  12.205  0.2702  0.0562  0.0599
16553SOL     OW51099   3.448   6.012   3.904  0.1478  0.0840 -0.1726
16553SOL    HW151100   3.410   6.067   3.836  0.1074 -0.5274 -0.6574
16553SOL    HW251101   3.535   6.049   3.919 -0.1413  0.6978  0.0094
16554SOL     OW51102   0.313   4.549   3.294  0.0494 -0.2489 -0.0395
16554SOL    HW151103   0.226   4.585   3.314 -0.1757 -0.2868 -0.9087
16554SOL    HW251104   0.328   4.484   3.363 -0.1763  0.4655  0.7003
16555SOL     OW51105   4.656   5.107   4.999  0.0468  0.0068 -0.3271
16555SOL    HW151106   4.749   5.097   4.983 -0.1322  0.3555 -1.7251
16555SOL    HW251107   4.617   5.026   4.968 -0.1549  0.0333 -0.1453
16556SOL     OW51108   7.078   1.468   9.835  0.2886  0.0764  0.2997
16556SOL    HW151109   7.120   1.510   9.911  0.9700 -1.3481  0.7357
16556SOL    HW251110   7.012   1.410   9.874 -0.7677  0.8199 -0.3109
16557SOL     OW51111   5.883   5.883   5.429  0.4442  0.2332 -0.2936
16557SOL    HW151112   5.891   5.970   5.391  0.3553  0.0777 -0.6771
16557SOL    HW251113   5.822   5.837   5.372  1.3729 -0.4429 -0.7783
16558SOL     OW51114   1.572   5.576   7.283  0.0802 -0.2513  0.0358
16558SOL    HW151115   1.663   5.605   7.282 -0.5868  2.0212  0.0755
16558SOL    HW251116   1.530   5.624   7.212 -1.6380  0.8022  1.6712
16559SOL     OW51117   4.496   6.183   4.864  0.4057 -0.1945 -0.3369
16559SOL    HW151118   4.547   6.178   4.782  2.1764 -2.4311  0.8058
16559SOL    HW251119   4.467   6.094   4.880  0.5479  0.0814  1.7363
16560SOL     OW51120   6.335   5.703   4.455 -0.2204 -0.1983  0.3021
16560SOL    HW151121   6.266   5.761   4.423  1.6012  1.3044 -1.1777
16560SOL    HW251122   6.304   5.615   4.436 -1.5034  0.4614 -0.7992
16561SOL     OW51123   0.353   3.040   9.163 -0.2405  0.2286 -0.1950
16561SOL    HW151124   0.269   3.029   9.117 -0.8153 -0.9188  1.0679
16561SOL    HW251125   0.363   3.135   9.171 -1.4576  0.3911 -0.2900
16562SOL     OW51126   0.026   0.141  11.719 -0.1201 -0.2216  0.2296
16562SOL    HW151127  -0.063   0.155  11.688 -0.3914 -0.3632  0.9418
16562SOL    HW251128   0.076   0.215  11.682 -0.9332  0.9825  1.4411
16563SOL     OW51129   6.841   6.512   2.457 -0.0348 -0.0739  0.5674
16563SOL    HW151130   6.889   6.436   2.489  0.3102  0.7650  2.1145
16563SOL    HW251131   6.763   6.475   2.414  0.4202 -1.3062  0.7599
16564SOL     OW51132   6.231   7.766   9.505 -0.3933 -0.6637  0.1290
16564SOL    HW151133   6.190   7.760   9.591 -0.0119 -2.9751  0.2264
16564SOL    HW251134   6.164   7.733   9.445 -0.9621  1.6950 -0.6437
16565SOL     OW51135   6.193   1.026   7.397  0.4287 -0.1926 -0.5001
16565SOL    HW151136   6.203   0.969   7.473 -0.2788 -0.7966 -0.8504
16565SOL    HW251137   6.194   1.115   7.434  0.6050 -0.4612  0.1512
16566SOL     OW51138   4.261   3.957   4.605 -0.1450 -0.0166 -0.2817
16566SOL    HW151139   4.343   3.915   4.579 -1.5087 -2.8612 -0.3541
16566SOL    HW251140   4.256   3.943   4.700 -0.6801 -0.1611 -0.3272
16567SOL     OW51141   7.402   7.151   1.712 -0.0172 -0.0873  0.1014
16567SOL    HW151142   7.307   7.155   1.722  0.0739 -0.2788  1.1560
16567SOL    HW251143   7.433   7.112   1.794  0.8792 -1.2536 -0.7663
16568SOL     OW51144   6.510   5.280   8.454 -0.3624 -0.1185  0.3288
16568SOL    HW151145   6.528   5.202   8.507  0.0381  0.0277  0.4179
16568SOL    HW251146   6.415   5.288   8.454 -0.3556  0.1381  1.4164
16569SOL     OW51147   3.716   5.249   2.119 -0.0486 -0.0686 -0.0160
16569SOL    HW151148   3.639   5.270   2.172  0.4046  0.0933  0.6003
16569SOL    HW251149   3.720   5.318   2.053 -0.4390 -0.0817 -0.0522
16570SOL     OW51150   3.367   3.526   4.960 -0.0779  0.1871  0.2953
16570SOL    HW151151   3.279   3.557   4.939 -0.1548  0.9887  1.6867
16570SOL    HW251152   3.415   3.605   4.983 -0.2491 -0.5885  3.8643
16571SOL     OW51153   0.808   1.425   9.152  0.2961 -0.6867 -0.7738
16571SOL    HW151154   0.878   1.483   9.182  0.3096 -0.2072 -1.6706
16571SOL    HW251155   0.729   1.479   9.158 -0.1299 -1.4478  0.8890
16572SOL     OW51156   1.889   5.274   3.517 -0.2869 -0.1782  0.1100
16572SOL    HW151157   1.949   5.228   3.574 -1.4509 -0.2501  1.3363
16572SOL    HW251158   1.841   5.333   3.575 -1.5557 -0.2919 -0.7694
16573SOL     OW51159   7.309   6.560   1.723  0.0276 -0.5343  0.0227
16573SOL    HW151160   7.362   6.536   1.799 -0.0695  0.9658  0.6054
16573SOL    HW251161   7.284   6.651   1.739  1.4274  0.4130 -2.6218
16574SOL     OW51162   2.901   5.275   4.648  0.0227  0.0789 -0.1058
16574SOL    HW151163   2.901   5.302   4.556  1.8147 -1.0615 -0.4907
16574SOL    HW251164   2.909   5.180   4.645 -0.3964 -0.0259  1.2530
16575SOL     OW51165   7.868   2.611   2.492 -0.1073  0.1946 -0.0243
16575SOL    HW151166   7.916   2.621   2.575  1.3090  2.3238 -1.0219
16575SOL    HW251167   7.824   2.526   2.501 -2.5564  1.5941  4.1598
16576SOL     OW51168   5.970   6.062   1.057 -0.2453  0.0478 -0.7463
16576SOL    HW151169   6.058   6.101   1.060 -0.9546  1.7561  1.4345
16576SOL    HW251170   5.938   6.080   0.969  0.6765  1.6819 -0.7878
16577SOL     OW51171   1.352   6.847  10.220  0.0673 -0.2426  0.5104
16577SOL    HW151172   1.392   6.847  10.133 -2.8850  0.1980 -0.9815
16577SOL    HW251173   1.350   6.755  10.246 -0.0940 -0.5242 -0.4608
16578SOL     OW51174   7.262   4.322   9.474 -0.3340 -0.3386 -0.7268
16578SOL    HW151175   7.247   4.231   9.450  1.5075 -0.4646 -1.5968
16578SOL    HW251176   7.302   4.318   9.562 -0.9527 -0.3079 -0.4396
16579SOL     OW51177   7.172   5.306  10.667 -0.5391  0.0145  0.4782
16579SOL    HW151178   7.161   5.365  10.742  0.3375 -0.6539  1.1569
16579SOL    HW251179   7.223   5.233  10.702 -1.1674 -0.8960 -0.4819
16580SOL     OW51180   2.494   0.024   8.643  0.1107  0.3411  0.8100
16580SOL    HW151181   2.489   0.096   8.706  0.0578 -0.2183  1.4571
16580SOL    HW251182   2.407  -0.017   8.646 -0.2643  0.9790 -0.4535
16581SOL     OW51183   5.016   0.243   7.974  0.0531 -0.1706 -0.1488
16581SOL    HW151184   5.095   0.234   8.028 -0.0718  0.8767  0.2431
16581SOL    HW251185   4.992   0.335   7.983 -0.4173 -0.1559 -1.3928
16582SOL     OW51186   5.393   2.997   5.307 -0.2474 -0.6551 -0.7898
16582SOL    HW151187   5.459   2.935   5.339 -1.1140 -1.4126 -0.4267
16582SOL    HW251188   5.434   3.083   5.320 -0.8927 -0.7818  3.5034
16583SOL     OW51189   0.857   2.197   4.084 -0.6955 -0.1232 -0.4881
16583SOL    HW151190   0.801   2.249   4.141 -0.3668 -0.7260  0.4218
16583SOL    HW251191   0.931   2.255   4.063 -0.4078 -0.1487  0.3899
16584SOL     OW51192   3.362   4.970   4.386  0.3426 -0.1201  0.0830
16584SOL    HW151193   3.417   4.949   4.310  1.3326  3.6814 -0.4702
16584SOL    HW251194   3.422   4.967   4.461  0.6530  1.0682 -0.0905
16585SOL     OW51195   1.152   5.422   4.658 -0.1768  0.4102  0.3153
16585SOL    HW151196   1.222   5.413   4.593  0.9123 -0.9614  1.5973
16585SOL    HW251197   1.075   5.448   4.607  0.4302 -1.3863 -1.6707
16586SOL     OW51198   3.209   5.705   2.862  0.2039 -0.4006 -0.2914
16586SOL    HW151199   3.122   5.744   2.853  0.2219 -0.2682  0.0925
16586SOL    HW251200   3.262   5.749   2.796 -0.0945 -0.7000 -0.7379
16587SOL     OW51201   4.584   7.419   2.139 -0.4390 -0.3517 -0.3330
16587SOL    HW151202   4.677   7.402   2.152 -0.7790 -1.7621  0.4524
16587SOL    HW251203   4.579   7.514   2.126  0.9484 -0.0340  1.0814
16588SOL     OW51204   4.877   1.913   1.260 -0.0236 -0.3313 -0.1635
16588SOL    HW151205   4.946   1.979   1.271  0.8000 -1.0518 -0.8007
16588SOL    HW251206   4.815   1.930   1.330 -0.2995  1.6896 -0.8558
16589SOL     OW51207   1.379   6.024   9.435 -0.0438  0.1963 -0.0511
16589SOL    HW151208   1.286   6.003   9.424  0.0329 -0.6325  0.7040
16589SOL    HW251209   1.386   6.116   9.410 -1.1917  0.4595  0.4978
16590SOL     OW51210   1.031   4.562  11.491 -0.4853 -0.4189  0.1436
16590SOL    HW151211   1.056   4.541  11.401 -2.2820  1.6871 -0.9478
16590SOL    HW251212   0.937   4.542  11.495 -0.0704 -2.2541  2.1783
16591SOL     OW51213   5.197   5.301   1.086  0.3687  0.4616  0.5419
16591SOL    HW151214   5.174   5.256   1.167  1.6990 -0.2616  0.5455
16591SOL    HW251215   5.248   5.237   1.036 -0.7177  0.7617 -1.0375
16592SOL     OW51216   1.917   3.406   4.073 -0.3710 -0.3319  0.5862
16592SOL    HW151217   1.848   3.472   4.072 -2.6287 -2.5114 -0.8587
16592SOL    HW251218   1.887   3.339   4.011  2.7417 -1.7688  0.4268
16593SOL     OW51219   5.030   1.860   4.374  0.3456  0.0420 -0.1771
16593SOL    HW151220   5.119   1.828   4.364 -0.0201 -1.3310  0.7273
16593SOL    HW251221   5.030   1.905   4.459  0.2077  0.1792 -0.2481
16594SOL     OW51222   7.591   5.401   6.642 -0.0808 -0.0611 -0.4182
16594SOL    HW151223   7.503   5.427   6.615  0.1699  2.2520  0.7931
16594SOL    HW251224   7.578   5.357   6.726 -0.2064 -1.4600 -1.1259
16595SOL     OW51225   5.965   6.901   1.270 -0.4230  0.8113 -0.0491
16595SOL    HW151226   6.023   6.916   1.195  0.1596 -0.1367  0.1965
16595SOL    HW251227   6.011   6.943   1.343 -0.7989  1.3909 -0.1408
16596SOL     OW51228   1.137   7.258   8.699 -0.2081  0.2651  0.1885
16596SOL    HW151229   1.159   7.346   8.668 -1.9469  0.9611  0.7931
16596SOL    HW251230   1.108   7.211   8.620 -0.1469  0.5269  0.0091
16597SOL     OW51231   5.139   0.223  10.802 -0.7661  0.1568  0.4227
16597SOL    HW151232   5.050   0.202  10.831 -0.4259  0.2955  1.6318
16597SOL    HW251233   5.177   0.271  10.876  0.3775 -0.0645 -0.0048
16598SOL     OW51234   7.580   1.780   3.767  0.5099 -0.3942 -0.5484
16598SOL    HW151235   7.584   1.831   3.686 -2.7085  2.1543  0.7102
16598SOL    HW251236   7.508   1.719   3.753  0.4934 -0.5201  0.0775
16599SOL     OW51237   3.942   0.419  11.875  0.0622  0.2011  0.0972
16599SOL    HW151238   3.960   0.364  11.798  1.4080 -0.5800  0.9451
16599SOL    HW251239   4.005   0.490  11.870 -0.5451  0.7364 -0.0709
16600SOL     OW51240   3.558   2.928   4.114 -0.1844  0.3685  0.0356
16600SOL    HW151241   3.552   3.021   4.133  1.4771  0.0891  2.4075
16600SOL    HW251242   3.640   2.900   4.155  2.2851 -1.1709 -5.1886
16601SOL     OW51243   1.508   3.475   1.656  0.5074  0.0244 -0.1645
16601SOL    HW151244   1.417   3.495   1.678  0.6815  1.1501 -0.4204
16601SOL    HW251245   1.540   3.422   1.730 -0.2438 -0.0873  0.0847
16602SOL     OW51246   0.647   4.352   0.175 -0.0892 -0.2695  0.0376
16602SOL    HW151247   0.610   4.287   0.115 -2.1083  1.4371 -0.6907
16602SOL    HW251248   0.655   4.431   0.122 -0.2738  0.8136  1.5700
16603SOL     OW51249   1.912   3.406   8.934  0.6718  0.4927 -0.6375
16603SOL    HW151250   1.906   3.336   8.999 -1.2321  0.9531 -0.2414
16603SOL    HW251251   1.833   3.395   8.881  0.9286  1.6481 -1.2788
16604SOL     OW51252   3.340   0.167   7.749  0.3195 -0.0489 -0.0294
16604SOL    HW151253   3.407   0.149   7.683 -1.3293 -1.1960 -1.4761
16604SOL    HW251254   3.369   0.118   7.826  0.3988 -1.8035 -1.1233
16605SOL     OW51255   4.581   4.341   4.020  0.8418 -0.1065 -0.3581
16605SOL    HW151256   4.553   4.333   4.111  1.1959 -1.9873 -0.3812
16605SOL    HW251257   4.676   4.335   4.024  0.8007 -1.4172 -0.9328
16606SOL     OW51258   4.390   7.589  10.618  0.3871 -0.6837  0.3447
16606SOL    HW151259   4.326   7.534  10.574  0.7574 -1.8174  1.1501
16606SOL    HW251260   4.345   7.671  10.635 -0.7175 -1.3233  0.5552
16607SOL     OW51261   2.471   5.213   1.098 -0.2382 -0.0878 -0.3247
16607SOL    HW151262   2.546   5.258   1.137 -0.0601 -1.0812  0.5199
16607SOL    HW251263   2.395   5.265   1.126 -0.1209 -0.8050  1.4541
16608SOL     OW51264   7.793   7.301   4.234  0.8391  0.0265  0.3910
16608SOL    HW151265   7.849   7.364   4.188  3.0651 -1.2056  1.2504
16608SOL    HW251266   7.828   7.216   4.209 -0.9368 -0.8358  0.7019
16609SOL     OW51267   5.127   3.463   0.719 -0.5743 -0.1682  0.3108
16609SOL    HW151268   5.179   3.445   0.797 -0.3755  0.0933  0.2387
16609SOL    HW251269   5.191   3.486   0.652 -0.7598 -0.1605  0.1347
16610SOL     OW51270   7.028   0.755   4.865 -0.3974  0.0346 -0.1311
16610SOL    HW151271   7.053   0.747   4.774 -1.0481  1.1944 -0.4315
16610SOL    HW251272   6.955   0.694   4.876 -0.0579 -0.3958 -0.2801
16611SOL     OW51273   1.402   0.475  10.733  0.4013  0.3550  0.6477
16611SOL    HW151274   1.385   0.552  10.679 -1.3146 -1.3716 -1.4501
16611SOL    HW251275   1.367   0.498  10.819 -0.8946  1.5956 -0.1652
16612SOL     OW51276   2.322   1.630   6.240 -0.0251 -0.2342 -0.5405
16612SOL    HW151277   2.260   1.584   6.296 -1.3338  1.4073 -0.5377
16612SOL    HW251278   2.302   1.599   6.152  0.7814 -1.4563 -0.3088
16613SOL     OW51279   3.733   3.668  12.166 -0.3017  0.2746  0.4469
16613SOL    HW151280   3.800   3.611  12.129  0.3073  1.3493 -0.1547
16613SOL    HW251281   3.654   3.649  12.115 -0.3755 -0.7081  0.8971
16614SOL     OW51282   6.885   5.770   1.488 -0.1807  0.1017  0.0317
16614SOL    HW151283   6.804   5.733   1.522 -0.4963  0.0850 -0.7222
16614SOL    HW251284   6.953   5.739   1.548 -0.6584 -0.3494  0.3408
16615SOL     OW51285   6.619   0.632  12.158  0.4085 -0.1287  0.2181
16615SOL    HW151286   6.708   0.664  12.143  0.2631 -0.0624 -0.5558
16615SOL    HW251287   6.630   0.553  12.211  0.8026  0.9019  1.7248
16616SOL     OW51288   2.665   1.051   8.409 -0.0289 -0.2612  0.3053
16616SOL    HW151289   2.741   1.076   8.356  0.3828 -0.6942  0.6704
16616SOL    HW251290   2.615   0.992   8.353 -0.6589  0.8449 -0.3188
16617SOL     OW51291   3.770   2.615   7.575 -0.1946 -0.2498  0.0260
16617SOL    HW151292   3.850   2.644   7.532  0.1886 -1.2303  0.0727
16617SOL    HW251293   3.800   2.562   7.649 -0.8748  0.1324  0.5970
16618SOL     OW51294   0.380   4.412   3.072 -0.7368 -0.2035 -0.2136
16618SOL    HW151295   0.375   4.454   3.158 -0.4720 -0.9472  0.1735
16618SOL    HW251296   0.309   4.348   3.073 -1.2925  0.3905 -0.8926
16619SOL     OW51297   1.413   4.630   2.467  0.3325  1.1733  0.3202
16619SOL    HW151298   1.493   4.654   2.514  1.3585  0.1276 -0.8276
16619SOL    HW251299   1.399   4.703   2.405  1.3842  0.5912 -0.6415
16620SOL     OW51300   3.161   3.243   2.546 -0.4103 -0.4167 -0.3998
16620SOL    HW151301   3.135   3.174   2.485  0.6238 -0.8711 -0.3622
16620SOL    HW251302   3.123   3.216   2.630  1.3972 -1.9179  0.0143
16621SOL     OW51303   6.990   5.090   1.959 -0.4124  0.1983  0.0892
16621SOL    HW151304   6.938   5.135   1.892 -0.0207  0.7479  0.1564
16621SOL    HW251305   6.937   5.013   1.981 -0.3579 -0.2237 -1.1552
16622SOL     OW51306   4.533   2.487   6.350 -0.8241 -0.2633 -0.2430
16622SOL    HW151307   4.530   2.458   6.441 -0.2967  0.1980 -0.0658
16622SOL    HW251308   4.452   2.536   6.338 -1.4629 -1.3290 -0.3869
16623SOL     OW51309   3.902   5.386   2.930 -0.1957 -0.1205  0.3339
16623SOL    HW151310   3.924   5.373   3.022 -0.5476  1.7217  0.7153
16623SOL    HW251311   3.814   5.425   2.931 -0.3656 -0.4202 -0.8010
16624SOL     OW51312   2.712   1.795   0.991 -0.7716 -0.1164 -0.1117
16624SOL    HW151313   2.708   1.890   0.980  0.6710 -0.0546 -0.3128
16624SOL    HW251314   2.799   1.771   0.960 -0.0882 -1.1806  2.3735
16625SOL     OW51315   4.188   5.349   5.390 -0.7538  0.3056  0.1020
16625SOL    HW151316   4.199   5.271   5.336  1.9731 -0.3386  1.4130
16625SOL    HW251317   4.105   5.336   5.435 -1.9683 -0.2117 -2.1394
16626SOL     OW51318   6.973   2.545   6.539 -0.6084  0.1345 -0.0310
16626SOL    HW151319   7.023   2.558   6.458 -1.7661  2.7389 -0.4342
16626SOL    HW251320   7.028   2.584   6.607 -0.4450 -0.4140  0.1557
16627SOL     OW51321   0.280   3.846   0.717 -0.3559 -0.3127 -0.0460
16627SOL    HW151322   0.326   3.847   0.633  0.0628  2.6611  0.1105
16627SOL    HW251323   0.196   3.804   0.698  0.3821 -1.1957 -1.5342
16628SOL     OW51324   2.182   1.523  10.759 -0.2199 -0.1909  0.2965
16628SOL    HW151325   2.183   1.603  10.811  1.0466  0.5823 -0.8587
16628SOL    HW251326   2.118   1.540  10.690  0.4705  0.0570 -0.2877
16629SOL     OW51327   2.660   6.330   4.579 -0.6677 -0.0463 -0.3448
16629SOL    HW151328   2.747   6.349   4.614 -0.6677 -2.8721  1.5346
16629SOL    HW251329   2.602   6.391   4.625 -0.1756 -1.1481  1.8481
16630SOL     OW51330   2.023   7.726   0.626 -0.3623 -0.0137  0.0794
16630SOL    HW151331   2.026   7.721   0.722  0.3296  0.7374  0.1090
16630SOL    HW251332   2.109   7.695   0.597 -1.0111 -1.4560 -0.3792
16631SOL     OW51333   3.981   7.201   6.122  0.1849  0.0968  0.3022
16631SOL    HW151334   3.975   7.289   6.084  0.2787 -0.4416 -0.9955
16631SOL    HW251335   4.005   7.216   6.213  1.3838  1.3678 -0.1971
16632SOL     OW51336   4.154   2.581  10.002 -0.3897 -0.3048 -0.4894
16632SOL    HW151337   4.221   2.643   9.971  0.2419 -1.0427 -0.6493
16632SOL    HW251338   4.098   2.566   9.926 -1.0199  0.6602 -0.2295
16633SOL     OW51339   4.026   5.878  11.782  0.0014  0.1298  0.0184
16633SOL    HW151340   4.030   5.797  11.731 -0.0945  1.2185 -1.8356
16633SOL    HW251341   4.109   5.922  11.763 -0.3621  0.9115  0.1925
16634SOL     OW51342   6.686   2.179  11.565 -0.3077 -0.3468  0.4949
16634SOL    HW151343   6.703   2.268  11.534 -1.6393 -0.4533 -0.6152
16634SOL    HW251344   6.692   2.185  11.661  1.9020  0.4199  0.3648
16635SOL     OW51345   0.059   0.348   9.037  0.2754 -0.4223 -0.1018
16635SOL    HW151346   0.075   0.256   9.057  1.6994  0.4449  3.4861
16635SOL    HW251347   0.142   0.381   9.005  0.3165 -0.0018  0.4228
16636SOL     OW51348   0.378   1.721   7.473 -0.5112  0.1041  0.4488
16636SOL    HW151349   0.409   1.728   7.383 -0.9673 -2.2928  0.0113
16636SOL    HW251350   0.299   1.775   7.475 -1.1427 -0.6827 -0.9718
16637SOL     OW51351   4.984   6.404  11.212  0.5688  0.1203  0.1943
16637SOL    HW151352   5.017   6.435  11.128  1.1239 -0.0220  0.3578
16637SOL    HW251353   4.896   6.441  11.218 -0.3361 -1.5908 -1.4246
16638SOL     OW51354   2.978   6.899   9.127 -0.6106  0.1620  0.2805
16638SOL    HW151355   3.020   6.867   9.047  2.3665  1.5095  1.1656
16638SOL    HW251356   2.962   6.992   9.111  0.9865  0.7095  1.5095
16639SOL     OW51357   4.749   4.915   4.554 -0.8299 -0.4695  0.5252
16639SOL    HW151358   4.812   4.853   4.517  1.1056  1.6583  0.0518
16639SOL    HW251359   4.699   4.946   4.478  1.3673  1.9145 -0.1060
16640SOL     OW51360   7.490   4.733   6.193  0.3891  0.0808 -0.2799
16640SOL    HW151361   7.468   4.826   6.195  0.5789  0.2159 -2.3950
16640SOL    HW251362   7.584   4.731   6.215 -0.1087  0.1244  2.0793
16641SOL     OW51363   6.975   1.100   0.673  0.4499 -0.3977  0.7869
16641SOL    HW151364   6.934   1.078   0.589  0.6854  0.9947  0.2757
16641SOL    HW251365   7.066   1.119   0.651  0.7736 -1.0468  1.5316
16642SOL     OW51366   5.200   4.500   9.413  0.0921  0.4318  0.2593
16642SOL    HW151367   5.192   4.594   9.394  0.1938  0.8517  2.1365
16642SOL    HW251368   5.173   4.457   9.332 -1.3455  2.0650 -0.1875
16643SOL     OW51369   2.790   7.058   9.326 -0.4227 -0.4782 -0.1314
16643SOL    HW151370   2.709   7.022   9.362 -0.6263  1.0436  1.0323
16643SOL    HW251371   2.857   6.993   9.347 -0.8167 -0.3549  1.6549
16644SOL     OW51372   2.226   5.548   3.407 -0.3090  0.0289  0.2988
16644SOL    HW151373   2.285   5.595   3.348  0.2622  1.5701  1.9949
16644SOL    HW251374   2.147   5.532   3.355  0.8597 -0.3856 -1.4316
16645SOL     OW51375   5.036   1.047   2.227 -0.2860 -0.1384 -0.0237
16645SOL    HW151376   5.093   1.044   2.303 -1.2227 -1.3277  0.6827
16645SOL    HW251377   4.974   1.117   2.245  1.1185  1.4065 -0.9626
16646SOL     OW51378   5.409   4.806   7.423  0.0749  0.1252  0.4644
16646SOL    HW151379   5.322   4.791   7.461  0.1136 -0.3922  0.3473
16646SOL    HW251380   5.397   4.795   7.329  0.5301 -1.2925  0.5430
16647SOL     OW51381   7.610   3.240   3.433  1.0437 -0.3714  0.8694
16647SOL    HW151382   7.624   3.296   3.357 -0.3840 -0.1830  0.7063
16647SOL    HW251383   7.658   3.160   3.414  0.1465 -0.6050 -0.5626
16648SOL     OW51384   7.728   0.574   8.178 -0.0551 -0.2736  0.1466
16648SOL    HW151385   7.709   0.497   8.125 -0.3090 -0.6827  0.8126
16648SOL    HW251386   7.758   0.640   8.116 -0.8241 -0.5759 -0.5710
16649SOL     OW51387   3.563   7.651  11.065 -0.0639 -0.5333 -0.1004
16649SOL    HW151388   3.518   7.732  11.043  1.4854 -0.1112 -2.0162
16649SOL    HW251389   3.555   7.644  11.160  0.5248  2.3351  0.2499
16650SOL     OW51390   5.238   5.088  11.101 -0.0658  0.3089  0.0371
16650SOL    HW151391   5.148   5.117  11.083 -0.1776 -0.5256 -0.8753
16650SOL    HW251392   5.253   5.111  11.193 -1.5818 -0.4059  0.5040
16651SOL     OW51393   1.698   4.544   2.626  0.3927 -0.2098  0.1031
16651SOL    HW151394   1.683   4.490   2.703  0.7676  0.0496  0.3558
16651SOL    HW251395   1.669   4.489   2.553  0.4426 -0.6176  0.3870
16652SOL     OW51396   2.923   0.575  10.886  0.1541  0.2827 -0.1181
16652SOL    HW151397   2.944   0.619  10.804 -2.8009  2.1462  0.0185
16652SOL    HW251398   2.931   0.643  10.953  1.9806 -1.0829  1.1754
16653SOL     OW51399   6.491   4.831   2.388  0.2908 -0.0093 -0.2898
16653SOL    HW151400   6.574   4.798   2.355 -0.2195 -1.4846 -0.1740
16653SOL    HW251401   6.458   4.888   2.319  0.4479 -1.0253 -1.2269
16654SOL     OW51402   6.890   2.595  10.713  0.2022 -0.2796 -0.2680
16654SOL    HW151403   6.800   2.570  10.734  0.4402 -0.7003  0.2629
16654SOL    HW251404   6.889   2.612  10.619 -0.4291 -0.2864 -0.2654
16655SOL     OW51405   7.347   4.284   2.554  0.3919 -0.3271  0.0409
16655SOL    HW151406   7.269   4.252   2.509 -0.3813  1.6801 -0.1385
16655SOL    HW251407   7.402   4.319   2.484  0.3362  0.4693  0.3845
16656SOL     OW51408   1.574   7.651   7.630  0.4711  0.2386 -0.6403
16656SOL    HW151409   1.515   7.719   7.662  0.9657 -0.0789  1.0627
16656SOL    HW251410   1.595   7.677   7.540 -1.8584  0.6008 -1.1522
16657SOL     OW51411   2.124   2.694   7.561  0.3382  0.5120 -0.1356
16657SOL    HW151412   2.097   2.782   7.585 -2.0907 -0.6158  1.7295
16657SOL    HW251413   2.044   2.641   7.568  1.8477 -2.0045 -0.4086
16658SOL     OW51414   2.737   2.625  11.243 -0.6056 -0.0583  0.5585
16658SOL    HW151415   2.720   2.679  11.320  1.7087 -0.3887  1.3820
16658SOL    HW251416   2.656   2.630  11.192 -1.6724  1.3815  2.2626
16659SOL     OW51417   4.040   0.591   2.541 -0.4057  0.4637 -0.2652
16659SOL    HW151418   3.997   0.508   2.521 -2.4289  1.4750 -0.3566
16659SOL    HW251419   4.103   0.570   2.610  1.4814 -1.7199 -2.4614
16660SOL     OW51420   6.480   6.726   8.746 -0.2125  0.3553 -0.3014
16660SOL    HW151421   6.398   6.751   8.703 -0.3262  0.1255 -0.2194
16660SOL    HW251422   6.525   6.809   8.763 -0.3841  0.4750 -0.4331
16661SOL     OW51423   5.098   1.760   1.378 -0.1520 -0.1300 -0.6676
16661SOL    HW151424   5.041   1.728   1.448  0.3593 -0.5557 -0.4480
16661SOL    HW251425   5.046   1.828   1.335  0.4092  1.9998  1.7142
16662SOL     OW51426   5.743   0.005   2.326 -0.3244  0.4635  0.5695
16662SOL    HW151427   5.726  -0.052   2.251 -2.1197  2.9074 -1.0190
16662SOL    HW251428   5.701  -0.039   2.400 -0.0771 -1.1310 -0.2091
16663SOL     OW51429   1.167   1.092   7.752  0.0110  0.0404 -0.2398
16663SOL    HW151430   1.071   1.097   7.753 -0.0484 -0.3922 -1.5174
16663SOL    HW251431   1.195   1.149   7.823 -1.1420  1.7525 -1.1091
16664SOL     OW51432   1.757   0.113  10.184  0.6579  0.0612 -0.2264
16664SOL    HW151433   1.732   0.201  10.213 -0.9624 -0.6917  0.8327
16664SOL    HW251434   1.677   0.077  10.146  1.5572 -0.6433 -1.5022
16665SOL     OW51435   1.485   3.340   3.751 -0.4385 -0.2214 -0.5046
16665SOL    HW151436   1.436   3.349   3.668 -0.9539  0.8247 -0.1099
16665SOL    HW251437   1.418   3.321   3.816 -0.3739  1.3950  0.0735
16666SOL     OW51438   1.603   5.856   2.218 -0.2437  0.5058 -0.2345
16666SOL    HW151439   1.614   5.817   2.304 -3.3460 -1.5156 -0.6290
16666SOL    HW251440   1.665   5.809   2.162  2.1621  2.1804  0.8416
16667SOL     OW51441   1.698   2.662   9.142 -0.5359  0.0108 -0.0987
16667SOL    HW151442   1.677   2.604   9.216 -2.0793 -0.9521 -1.2297
16667SOL    HW251443   1.710   2.748   9.182 -1.2271 -0.5042  1.2890
16668SOL     OW51444   1.506   2.211   3.626  0.0992  0.2049  0.1466
16668SOL    HW151445   1.570   2.279   3.646 -0.5789 -0.0859  4.3050
16668SOL    HW251446   1.432   2.258   3.587  1.6646  0.9221 -2.1516
16669SOL     OW51447   6.332   6.451  11.411 -0.3341  0.0122  0.0758
16669SOL    HW151448   6.349   6.455  11.317  0.8630 -0.3619  0.2560
16669SOL    HW251449   6.303   6.540  11.433  2.4796  1.0931 -0.1284
16670SOL     OW51450   0.372   7.322   5.817  0.3932  0.3792  0.3208
16670SOL    HW151451   0.357   7.294   5.907 -0.5759 -1.3265 -0.3183
16670SOL    HW251452   0.292   7.369   5.793  1.5185  2.7780  0.9886
16671SOL     OW51453   7.888   6.406   5.217  0.3313 -0.2351  0.1977
16671SOL    HW151454   7.822   6.395   5.149  0.2281 -1.0674  0.4322
16671SOL    HW251455   7.920   6.496   5.205  0.1914 -0.3188 -0.8370
16672SOL     OW51456   7.913   1.462   6.210 -0.4674 -0.4413 -0.2810
16672SOL    HW151457   7.847   1.479   6.143  0.1254 -1.3731 -1.1369
16672SOL    HW251458   7.888   1.377   6.247 -1.7269  0.7566  1.8815
16673SOL     OW51459   7.137   1.561   5.501  0.0594 -0.5853 -0.4749
16673SOL    HW151460   7.125   1.595   5.412  1.2931 -1.1638 -0.8788
16673SOL    HW251461   7.142   1.466   5.490 -2.1800 -0.8804  0.5084
16674SOL     OW51462   4.794   6.611   6.251  0.0773 -0.1731  0.2655
16674SOL    HW151463   4.713   6.632   6.297  0.5001  0.6624  0.6633
16674SOL    HW251464   4.766   6.570   6.169 -0.7225 -0.4937  0.6961
16675SOL     OW51465   3.307   7.701   6.593  0.0123 -0.1592  0.1004
16675SOL    HW151466   3.303   7.704   6.689  0.7608  1.5749  0.1099
16675SOL    HW251467   3.219   7.722   6.564 -0.0791 -0.1275  0.3953
16676SOL     OW51468   7.111   3.452  10.357  0.0372 -0.0184 -0.3829
16676SOL    HW151469   7.198   3.413  10.346  0.2882  0.7034 -1.0897
16676SOL    HW251470   7.108   3.521  10.290 -1.2081 -0.2667 -0.6004
16677SOL     OW51471   6.120   0.948   0.386 -0.1276 -0.1168 -0.6498
16677SOL    HW151472   6.126   0.986   0.474  0.1096  1.3715 -1.2863
16677SOL    HW251473   6.026   0.948   0.367 -0.2447 -1.1048 -0.1321
16678SOL     OW51474   0.343   5.695   7.593  0.0098  0.8245 -0.5483
16678SOL    HW151475   0.297   5.647   7.661 -0.5103  1.3491 -0.5169
16678SOL    HW251476   0.300   5.781   7.591 -0.5949  0.5179 -2.1500
16679SOL     OW51477   5.572   1.075   2.786  0.4668  0.2471 -0.3786
16679SOL    HW151478   5.636   1.123   2.733  0.0519  0.3626 -0.7815
16679SOL    HW251479   5.623   1.006   2.829  1.0693  1.0315  0.1931
16680SOL     OW51480   7.169   1.583   9.585  0.0858 -0.5457  0.0247
16680SOL    HW151481   7.195   1.672   9.609  1.8982 -1.3993  1.4653
16680SOL    HW251482   7.108   1.556   9.653  1.3180 -1.1788  0.9164
16681SOL     OW51483   5.693   0.571   0.388 -0.4559  0.1132 -1.0009
16681SOL    HW151484   5.679   0.598   0.297 -0.5275 -1.7021 -1.5820
16681SOL    HW251485   5.788   0.559   0.394 -0.5876 -1.2517 -1.3276
16682SOL     OW51486   6.148   0.493   1.520  0.2208 -0.1380  0.3276
16682SOL    HW151487   6.197   0.575   1.515 -1.2393  0.7693  0.5320
16682SOL    HW251488   6.077   0.503   1.456 -0.3456 -0.9791  0.8084
16683SOL     OW51489   2.378   1.235   3.371  0.1948  0.3934 -0.0902
16683SOL    HW151490   2.395   1.160   3.429 -2.8321 -1.1358 -1.0020
16683SOL    HW251491   2.403   1.204   3.284 -0.5037  0.6530 -0.3884
16684SOL     OW51492   0.210   4.990   5.252  0.8808  0.0881  0.1072
16684SOL    HW151493   0.253   4.908   5.230 -0.4656 -0.6957  0.2664
16684SOL    HW251494   0.238   5.051   5.183 -0.1522 -1.2264 -1.5748
16685SOL     OW51495   0.054   4.560   6.729  0.4296  0.4257  0.2727
16685SOL    HW151496   0.038   4.588   6.639 -0.7629 -1.4845 -0.1704
16685SOL    HW251497   0.008   4.625   6.783  0.4569  1.1136 -0.5193
16686SOL     OW51498   4.574   6.858   6.189 -0.0192  0.8628  0.2933
16686SOL    HW151499   4.657   6.899   6.167 -0.1790  0.4031 -1.2580
16686SOL    HW251500   4.554   6.800   6.115 -2.0725  1.5145  0.2534
16687SOL     OW51501   6.472   3.801   7.288 -0.2646 -0.0812  0.1993
16687SOL    HW151502   6.472   3.801   7.383 -1.0747 -0.4697  0.2089
16687SOL    HW251503   6.411   3.731   7.264  0.1251 -0.1651 -0.6066
16688SOL     OW51504   4.853   0.359   5.726 -0.2187 -0.0286 -0.6654
16688SOL    HW151505   4.803   0.395   5.799 -0.5634 -0.9678 -0.4258
16688SOL    HW251506   4.817   0.272   5.712  1.0788 -0.5824 -0.7544
16689SOL     OW51507   1.096   2.044   4.333 -0.0848  0.4690 -0.3277
16689SOL    HW151508   1.189   2.059   4.348  0.1153  0.6230 -1.5972
16689SOL    HW251509   1.092   2.000   4.248 -1.0690 -1.2875  0.5764
16690SOL     OW51510   4.350   6.337  10.422 -0.0889  0.0565  0.0225
16690SOL    HW151511   4.299   6.301  10.495 -0.2803  0.1967 -0.0400
16690SOL    HW251512   4.401   6.263  10.389  1.0748  0.3019  1.1970
16691SOL     OW51513   5.258   3.841  10.909 -0.4396 -0.0709 -0.0147
16691SOL    HW151514   5.222   3.861  10.823 -0.8296  0.5746  0.2849
16691SOL    HW251515   5.306   3.759  10.898 -0.0104  0.2997 -0.9738
16692SOL     OW51516   1.661   6.981   5.728 -0.1183 -0.1967 -0.4264
16692SOL    HW151517   1.745   7.027   5.725  0.7296 -1.6582 -0.5981
16692SOL    HW251518   1.677   6.901   5.677 -0.2882 -2.5866  2.9604
16693SOL     OW51519   2.652   3.811   9.358 -0.2439  0.1141 -0.2908
16693SOL    HW151520   2.621   3.788   9.446 -1.8560  2.0162 -0.2835
16693SOL    HW251521   2.723   3.873   9.373 -2.3302  2.6550 -0.2083
16694SOL     OW51522   6.722   5.929  12.210  0.3495 -0.3770  0.2781
16694SOL    HW151523   6.759   5.953  12.125  0.4763  0.4061  0.5385
16694SOL    HW251524   6.668   5.852  12.193  1.3163 -0.9460 -0.2905
16695SOL     OW51525   4.448   5.032   7.594 -0.1082  0.2046  0.7604
16695SOL    HW151526   4.411   4.954   7.635 -0.6855  0.2521  0.3370
16695SOL    HW251527   4.432   5.020   7.501 -2.3127  1.8991  0.8516
16696SOL     OW51528   5.695   7.163   0.430 -0.4623  0.1689 -0.3564
16696SOL    HW151529   5.689   7.196   0.519  0.2061  1.7402 -0.8686
16696SOL    HW251530   5.619   7.200   0.385 -0.7011 -0.4774 -0.5021
16697SOL     OW51531   4.766   6.148   2.089  0.3128 -0.6271  0.0789
16697SOL    HW151532   4.778   6.062   2.048  1.7120  0.0504 -1.0262
16697SOL    HW251533   4.674   6.149   2.117 -0.0913 -1.9769 -1.0817
16698SOL     OW51534   4.687   3.867   9.475  0.0899 -0.4585 -0.1204
16698SOL    HW151535   4.780   3.881   9.461  0.0740 -0.6960 -0.4846
16698SOL    HW251536   4.683   3.790   9.532  0.1483  0.3970  1.0713
16699SOL     OW51537   4.706   7.236   1.326  0.2766 -0.2901  0.3456
16699SOL    HW151538   4.650   7.174   1.280  1.3781 -1.6684  0.8049
16699SOL    HW251539   4.646   7.305   1.355 -0.5355  0.5545 -2.8406
16700SOL     OW51540   0.179   7.225   1.357 -0.3455  0.1524  0.3872
16700SOL    HW151541   0.225   7.298   1.317  0.1027 -0.6537 -0.6076
16700SOL    HW251542   0.086   7.245   1.343 -0.2289  0.6143  0.2691
16701SOL     OW51543   6.118   6.915  10.291  0.7911 -0.5231  0.0417
16701SOL    HW151544   6.057   6.978  10.330 -0.7150 -0.5091 -2.1812
16701SOL    HW251545   6.123   6.844  10.356 -0.5948  0.0646  0.8291
16702SOL     OW51546   4.568   4.219   3.589 -0.9476 -0.4324  0.2700
16702SOL    HW151547   4.472   4.215   3.587 -1.0122  0.5563  0.9787
16702SOL    HW251548   4.590   4.293   3.533 -0.3649 -2.7975 -2.9460
16703SOL     OW51549   2.715   6.805   3.444  0.0450 -0.9823  0.3152
16703SOL    HW151550   2.799   6.782   3.482  0.4651 -1.4290 -0.8429
16703SOL    HW251551   2.663   6.725   3.449 -1.0902 -0.1903  2.8979
16704SOL     OW51552   1.932   5.312  12.233 -0.1508  0.5415  0.7634
16704SOL    HW151553   1.976   5.359  12.304  1.3839 -0.9205  0.8646
16704SOL    HW251554   1.991   5.239  12.214 -0.6495  0.7369 -1.8480
16705SOL     OW51555   1.219   4.264   0.853  0.1110  0.1340 -0.0825
16705SOL    HW151556   1.227   4.358   0.834  2.5256 -0.0883 -0.5437
16705SOL    HW251557   1.263   4.221   0.779  2.3486 -1.1667  1.8816
16706SOL     OW51558   2.698   1.872   8.529  0.4872 -0.3197  0.5784
16706SOL    HW151559   2.620   1.907   8.574  0.4095 -2.3397  2.1216
16706SOL    HW251560   2.670   1.864   8.438 -1.0457 -0.7605  1.0483
16707SOL     OW51561   2.153   1.179   1.552  0.6817  0.2221  0.1214
16707SOL    HW151562   2.103   1.223   1.621 -0.4762 -0.8660  0.0039
16707SOL    HW251563   2.242   1.213   1.562  0.4636  0.3676  1.9101
16708SOL     OW51564   4.891   5.295   4.937  0.3205  0.2662  0.0273
16708SOL    HW151565   4.899   5.245   4.856 -0.1556  0.3257 -0.0615
16708SOL    HW251566   4.980   5.299   4.972  0.8288  1.5669 -1.2873
16709SOL     OW51567   7.631   5.565   4.091  0.0225 -0.2973 -0.3328
16709SOL    HW151568   7.550   5.616   4.097 -0.2761 -0.6933 -0.8487
16709SOL    HW251569   7.664   5.561   4.181  0.4738  1.4382 -0.3920
16710SOL     OW51570   1.755   4.164   4.523  0.0694  0.0203 -0.6125
16710SOL    HW151571   1.762   4.086   4.578  0.4538  1.3830  1.3999
16710SOL    HW251572   1.668   4.158   4.483 -0.8346 -0.3782  1.2766
16711SOL     OW51573   6.621   2.456   3.583 -0.1435 -0.6326 -0.5907
16711SOL    HW151574   6.631   2.362   3.570 -0.5367 -0.5886 -1.2305
16711SOL    HW251575   6.650   2.495   3.501  0.5010 -0.1586 -0.1537
16712SOL     OW51576   1.281   1.597  11.382 -0.1988  0.2241 -0.4011
16712SOL    HW151577   1.290   1.692  11.377 -0.9466  0.5648  2.6997
16712SOL    HW251578   1.196   1.579  11.343 -0.2433  0.8395 -0.6024
16713SOL     OW51579   1.419   6.215   6.481  0.4609  0.1460  0.4296
16713SOL    HW151580   1.363   6.138   6.495  0.8857 -0.1129  0.7488
16713SOL    HW251581   1.464   6.227   6.565 -0.1498  1.1983  0.6283
16714SOL     OW51582   5.494   7.838   6.799 -0.2355 -0.0234  0.1318
16714SOL    HW151583   5.489   7.836   6.704  2.0790 -1.5542 -0.0469
16714SOL    HW251584   5.505   7.930   6.822 -1.0873  0.3854 -1.0328
16715SOL     OW51585   3.478   2.011  11.878 -0.3104  0.6361 -0.0050
16715SOL    HW151586   3.553   2.069  11.894 -0.4800  1.7228 -2.6309
16715SOL    HW251587   3.405   2.052  11.924  0.0623  1.2494  0.0487
16716SOL     OW51588   1.918   5.843   0.526  0.6303  0.5070 -0.4243
16716SOL    HW151589   1.923   5.758   0.570 -1.9467  2.1857  3.5779
16716SOL    HW251590   2.008   5.875   0.527  1.3692 -1.4058 -0.5109
16717SOL     OW51591   7.496   4.680   5.409 -0.0155  0.1520 -0.0295
16717SOL    HW151592   7.588   4.656   5.395 -0.3872 -2.4012  1.3146
16717SOL    HW251593   7.466   4.710   5.323  1.6060 -0.6859 -0.9427
16718SOL     OW51594   4.152   6.376   9.595  0.3093  0.6153 -0.3179
16718SOL    HW151595   4.195   6.315   9.535  1.6260  1.3411 -0.1468
16718SOL    HW251596   4.123   6.320   9.667  1.0993  0.1024 -0.3759
16719SOL     OW51597   6.259   7.767   8.728  0.1795  0.3081 -0.3320
16719SOL    HW151598   6.313   7.846   8.722  0.7253 -0.1317 -1.5916
16719SOL    HW251599   6.304   7.704   8.672 -0.9442 -0.4862 -0.3596
16720SOL     OW51600   3.391   1.537   1.753 -0.0881  0.1740  0.1083
16720SOL    HW151601   3.353   1.599   1.815  0.9586  2.3845 -1.3122
16720SOL    HW251602   3.485   1.540   1.771 -0.0219 -0.9955 -0.0106
16721SOL     OW51603   3.897   5.524  10.816 -0.4198  0.3036 -0.1843
16721SOL    HW151604   3.963   5.522  10.886  0.4287  0.3970 -0.9675
16721SOL    HW251605   3.814   5.505  10.861  0.1286  0.2260  0.8234
16722SOL     OW51606   1.195   7.077   6.916 -0.3677 -0.0196  0.3835
16722SOL    HW151607   1.255   7.003   6.908 -0.4462 -0.0868  0.4081
16722SOL    HW251608   1.149   7.079   6.831  0.8785  1.0988 -0.2879
16723SOL     OW51609   5.971   5.950   8.837 -0.2827  0.1367  0.6625
16723SOL    HW151610   5.914   6.023   8.811 -0.1807  0.3140  0.9349
16723SOL    HW251611   6.013   5.980   8.917 -0.7859 -0.5149  1.1735
16724SOL     OW51612   4.492   5.228   5.191  0.5793 -0.3747  0.0840
16724SOL    HW151613   4.504   5.322   5.176 -0.0954 -0.3781 -0.5171
16724SOL    HW251614   4.561   5.186   5.140  0.1663 -0.2495 -0.5921
16725SOL     OW51615   4.591   7.187   5.174  0.2244  0.0378 -0.4853
16725SOL    HW151616   4.619   7.170   5.084  1.0916 -1.9887  0.1047
16725SOL    HW251617   4.507   7.142   5.181  0.1607  0.1916 -0.2617
16726SOL     OW51618   3.422   1.904   0.486  0.1288 -0.3965  0.2869
16726SOL    HW151619   3.412   1.984   0.435  0.4940  0.1960  1.1276
16726SOL    HW251620   3.473   1.846   0.429 -0.8098 -0.3351 -0.6438
16727SOL     OW51621   4.339   4.787   1.367 -0.1873 -0.1173  0.0116
16727SOL    HW151622   4.397   4.717   1.337 -0.0558  0.2074 -0.5081
16727SOL    HW251623   4.364   4.802   1.458  0.8536  0.3288 -0.3373
16728SOL     OW51624   2.125   6.725   7.756 -0.5918 -0.3292 -0.0424
16728SOL    HW151625   2.103   6.634   7.773 -0.7417 -0.2914 -0.0384
16728SOL    HW251626   2.042   6.771   7.757 -0.5616 -0.2586 -0.4539
16729SOL     OW51627   3.231   3.927   3.136  0.0163 -0.3122  0.2779
16729SOL    HW151628   3.285   3.886   3.204  2.4872  1.0469 -0.7161
16729SOL    HW251629   3.270   3.897   3.054 -0.2786  1.2762 -0.4732
16730SOL     OW51630   5.287   6.193   9.278 -0.3336 -0.1972  0.5458
16730SOL    HW151631   5.382   6.201   9.273 -0.2820 -0.6536  0.7443
16730SOL    HW251632   5.258   6.274   9.321 -0.0627  0.0657  0.2384
16731SOL     OW51633   4.427   6.140   0.198  0.5548 -0.0959  0.0371
16731SOL    HW151634   4.413   6.059   0.248  0.4730  0.3125  0.6860
16731SOL    HW251635   4.339   6.172   0.180  0.5477 -0.7923 -1.3132
16732SOL     OW51636   2.682   3.489   9.038  0.1132  0.5055 -0.4663
16732SOL    HW151637   2.738   3.458   8.967  1.2903 -0.8114  0.9624
16732SOL    HW251638   2.743   3.526   9.102 -0.6316 -0.5743  0.9401
16733SOL     OW51639   3.537   4.827   7.426 -0.1612 -0.4205  0.8580
16733SOL    HW151640   3.631   4.828   7.404  0.2612 -0.6883  2.5194
16733SOL    HW251641   3.529   4.763   7.496 -1.4870  0.0722  1.1894
16734SOL     OW51642   4.939   4.859   3.157  0.2356  0.1935 -0.4352
16734SOL    HW151643   4.946   4.914   3.235  0.9531  0.2676 -0.5404
16734SOL    HW251644   4.991   4.905   3.091  0.5005 -0.4020 -0.6478
16735SOL     OW51645   0.371   7.727   9.734 -0.2301  0.1205 -0.1248
16735SOL    HW151646   0.290   7.677   9.747  0.4835 -1.0939 -0.1775
16735SOL    HW251647   0.439   7.671   9.772  0.6125  1.0292 -0.2803
16736SOL     OW51648   1.661   2.920   2.972 -0.1301  0.1865  0.2279
16736SOL    HW151649   1.661   3.014   2.991  0.5761  0.3800 -0.6376
16736SOL    HW251650   1.745   2.889   3.007 -0.6139 -0.2425  1.0267
16737SOL     OW51651   2.424   1.570   8.773 -0.0912 -0.3987 -0.1587
16737SOL    HW151652   2.363   1.545   8.703  1.0985 -0.0440 -1.3511
16737SOL    HW251653   2.406   1.507   8.843 -1.1827 -0.8776 -0.8346
16738SOL     OW51654   6.648   3.890   4.923 -0.0594  0.0616  0.0361
16738SOL    HW151655   6.695   3.880   4.841 -0.0924  3.4767 -0.5090
16738SOL    HW251656   6.568   3.838   4.911  0.4660 -0.4204 -1.5969
16739SOL     OW51657   3.569   0.704   1.231  0.1872 -0.5492  0.1353
16739SOL    HW151658   3.512   0.776   1.260  0.5300 -0.5446  0.8217
16739SOL    HW251659   3.549   0.633   1.292  1.2411 -0.3976  0.6767
16740SOL     OW51660   2.302   7.882   6.546  0.5518  0.1097  0.5483
16740SOL    HW151661   2.376   7.904   6.490  0.8012 -0.5149  0.6218
16740SOL    HW251662   2.292   7.788   6.537 -0.0344  0.1437  0.7914
16741SOL     OW51663   6.238   0.284   1.350  0.3675 -0.0927 -0.1802
16741SOL    HW151664   6.259   0.375   1.371 -0.0037 -0.1771  0.5828
16741SOL    HW251665   6.299   0.232   1.403  1.2314 -0.2970 -1.3216
16742SOL     OW51666   3.085   4.023   5.805 -0.9016 -0.3964  0.0260
16742SOL    HW151667   3.108   3.998   5.895 -0.9235  1.4094  0.5772
16742SOL    HW251668   2.991   4.007   5.799 -1.5805  2.3541  1.4442
16743SOL     OW51669   1.864   2.138  11.464 -0.1048  0.4890  0.3408
16743SOL    HW151670   1.933   2.081  11.497 -1.1935 -1.8089 -1.0687
16743SOL    HW251671   1.906   2.191  11.396  0.1999 -1.3358 -0.9504
16744SOL     OW51672   7.736   7.665   2.288  0.0002  0.1549 -0.3267
16744SOL    HW151673   7.798   7.692   2.356 -0.8569  1.3218  0.0264
16744SOL    HW251674   7.654   7.710   2.311 -0.3547  0.4667 -2.0624
16745SOL     OW51675   6.524   5.171   4.295  0.5228 -0.2198 -0.1184
16745SOL    HW151676   6.516   5.261   4.265 -0.2105  0.5000  2.0417
16745SOL    HW251677   6.592   5.174   4.362  0.0251 -1.1349  0.4515
16746SOL     OW51678   4.525   0.310  10.227  0.4776  0.1948 -0.1786
16746SOL    HW151679   4.517   0.358  10.309 -1.5017  0.4690 -0.4838
16746SOL    HW251680   4.508   0.219  10.250  1.0397  0.1023 -0.1156
16747SOL     OW51681   4.209   7.016  10.007 -0.0868  0.8199  0.1587
16747SOL    HW151682   4.211   7.051  10.096  0.2964 -0.1797  0.5617
16747SOL    HW251683   4.216   6.921  10.019  2.0314  0.7608 -0.9968
16748SOL     OW51684   2.713   6.361   7.254 -0.6487 -0.4986  0.5657
16748SOL    HW151685   2.783   6.348   7.318  0.1022 -0.2657 -0.1873
16748SOL    HW251686   2.683   6.451   7.268 -1.0239 -0.6951  1.0894
16749SOL     OW51687   2.855   5.648   0.406  0.3004 -0.0884 -0.4795
16749SOL    HW151688   2.858   5.735   0.367 -0.1263 -0.3468 -1.1275
16749SOL    HW251689   2.877   5.589   0.333  1.2005 -0.4848  0.0973
16750SOL     OW51690   5.223   7.758   0.881  0.1349 -0.0829  0.0449
16750SOL    HW151691   5.296   7.702   0.910  0.6642  0.0732 -0.9410
16750SOL    HW251692   5.173   7.703   0.820  1.3479  0.8440 -1.8854
16751SOL     OW51693   6.657   1.770  10.642  0.7700  0.6185  0.1410
16751SOL    HW151694   6.571   1.731  10.622  0.7801  0.3855  0.5537
16751SOL    HW251695   6.637   1.839  10.705  0.8947  0.5227  0.2844
16752SOL     OW51696   5.345   2.290   4.092 -0.0734  0.3243  0.4441
16752SOL    HW151697   5.345   2.377   4.131  0.2926  0.2403  0.6379
16752SOL    HW251698   5.262   2.285   4.044 -0.0555  0.8122  0.3565
16753SOL     OW51699   4.660   3.230   2.691 -0.3353 -0.0789  0.3004
16753SOL    HW151700   4.642   3.321   2.716  0.7363  0.0356  0.6807
16753SOL    HW251701   4.586   3.181   2.727 -0.8485  0.6216  0.2243
16754SOL     OW51702   5.243   7.210  11.967 -0.1834  0.3378 -0.2515
16754SOL    HW151703   5.310   7.141  11.961 -0.3655  0.1367 -0.0343
16754SOL    HW251704   5.185   7.180  12.037 -0.8119  0.2383 -0.8003
16755SOL     OW51705   6.052   3.551  11.982 -0.3108  0.0322 -0.1782
16755SOL    HW151706   6.100   3.583  12.059  1.0642 -1.3559 -0.3947
16755SOL    HW251707   6.103   3.583  11.907  1.5694 -3.0949 -0.3982
16756SOL     OW51708   2.985   4.960   8.278  0.1306 -0.9495 -0.1588
16756SOL    HW151709   2.898   4.995   8.297  0.5725 -0.4466  0.9982
16756SOL    HW251710   2.967   4.877   8.233 -0.9285 -0.4604 -0.6896
16757SOL     OW51711   5.149   2.437   1.319  0.2293  0.3609  1.0404
16757SOL    HW151712   5.065   2.482   1.309  0.8484  2.1595  3.0745
16757SOL    HW251713   5.205   2.501   1.363  2.1355 -1.4018  1.3208
16758SOL     OW51714   1.803   0.311   7.961 -0.6090 -0.0210  0.2857
16758SOL    HW151715   1.857   0.308   7.882 -0.2505  0.5561  0.4980
16758SOL    HW251716   1.731   0.370   7.938 -0.1161  0.7265  0.6112
16759SOL     OW51717   2.390   6.914  10.959 -0.1183  0.4228  0.0456
16759SOL    HW151718   2.305   6.874  10.980  0.9768 -0.9983  2.1178
16759SOL    HW251719   2.407   6.972  11.033  1.0650  0.0830  0.0511
16760SOL     OW51720   0.912   0.124   4.759  0.0080 -0.2658  0.4112
16760SOL    HW151721   0.956   0.209   4.757  0.6497 -0.5560  1.4201
16760SOL    HW251722   0.938   0.081   4.677 -0.7958  0.7174 -0.3940
16761SOL     OW51723   3.699   4.764   9.721 -0.4497 -0.3412 -0.3374
16761SOL    HW151724   3.699   4.669   9.731  0.3997 -0.2121  1.2286
16761SOL    HW251725   3.776   4.794   9.770 -1.0874  1.1963 -0.2015
16762SOL     OW51726   2.518   3.156   7.255 -0.5558  0.0009 -0.1411
16762SOL    HW151727   2.469   3.237   7.270 -1.7889 -1.0300  1.8158
16762SOL    HW251728   2.455   3.087   7.273  0.9583 -1.3927 -0.0088
16763SOL     OW51729   1.821   5.804   0.292 -0.0615 -0.0180 -0.6618
16763SOL    HW151730   1.753   5.748   0.329 -0.5710  1.0434  0.1016
16763SOL    HW251731   1.868   5.837   0.369  0.4357  0.3318 -1.1099
16764SOL     OW51732   6.503   0.925  11.175  0.3960  0.0386  0.1202
16764SOL    HW151733   6.560   0.873  11.231  0.2106  0.9640  1.2030
16764SOL    HW251734   6.497   1.010  11.219  1.1247  1.1905 -1.8626
16765SOL     OW51735   1.845   5.987   8.452 -0.1297  0.4681  0.3380
16765SOL    HW151736   1.772   5.933   8.480  0.2744  0.2646  1.0043
16765SOL    HW251737   1.887   6.017   8.533  1.6494 -0.9410  0.0094
16766SOL     OW51738   1.483   6.983   0.170 -0.5345 -0.4570 -0.0080
16766SOL    HW151739   1.518   6.991   0.259  0.9611 -0.1083 -0.5968
16766SOL    HW251740   1.443   7.069   0.152 -1.5897 -0.7973  0.5994
16767SOL     OW51741   6.547   6.825  12.168  0.0062 -0.0036 -0.0087
16767SOL    HW151742   6.634   6.826  12.130  0.5225  1.5903  1.1421
16767SOL    HW251743   6.558   6.780  12.252 -0.6001 -1.1493 -0.5243
16768SOL     OW51744   5.985   6.983   4.360  0.1013 -0.0755  0.1052
16768SOL    HW151745   6.072   7.000   4.394  0.0897 -1.4123  0.8437
16768SOL    HW251746   5.926   7.020   4.425  0.1025  0.0962  0.0101
16769SOL     OW51747   0.740   4.231   1.094  0.0822 -0.0047  0.6422
16769SOL    HW151748   0.812   4.192   1.045 -0.0989 -1.7618  1.6996
16769SOL    HW251749   0.739   4.184   1.177 -1.8621  0.4349  0.9283
16770SOL     OW51750   5.298   0.899  11.763 -0.5310 -0.4466 -0.3428
16770SOL    HW151751   5.270   0.898  11.672  0.3432 -0.7872 -0.6241
16770SOL    HW251752   5.393   0.887  11.759 -0.6182 -1.6849  0.6536
16771SOL     OW51753   7.535   2.123  10.908  0.0371  0.0720  0.7587
16771SOL    HW151754   7.553   2.166  10.992 -1.0430  1.7906  0.1681
16771SOL    HW251755   7.621   2.094  10.877  1.0286  2.7364  0.7450
16772SOL     OW51756   1.636   2.720   1.109  0.3118  0.5531 -0.2789
16772SOL    HW151757   1.641   2.767   1.026  2.2121 -0.5267 -0.8384
16772SOL    HW251758   1.727   2.698   1.130 -0.0458  1.1868  2.3409
16773SOL     OW51759   1.403   4.007   4.672  0.2133 -0.6937 -0.0656
16773SOL    HW151760   1.426   3.934   4.614 -0.1354 -1.5216  0.8015
16773SOL    HW251761   1.307   4.012   4.669  0.2892  0.6629 -1.1972
16774SOL     OW51762   3.591   2.976  10.217 -0.2687  0.5816  0.2462
16774SOL    HW151763   3.512   3.016  10.252 -0.7056 -0.9613  1.1134
16774SOL    HW251764   3.626   2.925  10.289  0.7750  0.1593 -0.5369
16775SOL     OW51765   0.579   4.111  11.745  0.1144 -0.1886 -0.1085
16775SOL    HW151766   0.534   4.181  11.699  2.2140  2.2746  1.2948
16775SOL    HW251767   0.672   4.128  11.729  0.7426 -1.8801  1.3819
16776SOL     OW51768   1.312   5.752   2.719  0.8877 -0.4033  0.1124
16776SOL    HW151769   1.404   5.778   2.726  0.5513  1.1166 -0.7353
16776SOL    HW251770   1.265   5.834   2.709 -0.2778 -1.2914 -2.5836
16777SOL     OW51771   6.172   7.688   4.461  0.2435 -0.1993 -0.4145
16777SOL    HW151772   6.077   7.696   4.472  0.3203 -0.4460  0.5251
16777SOL    HW251773   6.204   7.778   4.461 -0.2349  0.0399 -3.3837
16778SOL     OW51774   1.547   7.768   1.182 -0.5026 -0.0160 -0.3526
16778SOL    HW151775   1.556   7.735   1.092  0.8003 -0.5073 -0.0615
16778SOL    HW251776   1.554   7.690   1.237  2.0875  0.5900  0.3309
16779SOL     OW51777   5.006   5.624   6.964 -0.3845 -0.4262  0.1320
16779SOL    HW151778   4.969   5.600   6.880 -0.9860  0.2126  0.2061
16779SOL    HW251779   5.087   5.671   6.943  0.3054 -1.6618 -0.0338
16780SOL     OW51780   4.820   3.055  10.437  0.3241  0.1890  0.0326
16780SOL    HW151781   4.887   3.123  10.434  1.1820 -0.6867 -1.8559
16780SOL    HW251782   4.803   3.042  10.530  0.0321  3.0539  0.4757
16781SOL     OW51783   1.727   0.298   1.372 -0.4491 -0.2904  0.3932
16781SOL    HW151784   1.693   0.268   1.288  0.9307  1.3020 -0.8010
16781SOL    HW251785   1.701   0.389   1.378  1.8613  0.4302  0.3266
16782SOL     OW51786   1.465   0.804   8.940  0.2737  0.5716 -0.9989
16782SOL    HW151787   1.511   0.819   8.857 -0.1538  0.6502 -1.2239
16782SOL    HW251788   1.401   0.875   8.945  1.7312  1.8906  0.4593
16783SOL     OW51789   4.882   7.914   9.309 -0.4847 -0.1361 -0.0491
16783SOL    HW151790   4.899   7.821   9.295 -1.0950 -0.2106 -0.3181
16783SOL    HW251791   4.966   7.949   9.340  0.0997 -0.5312 -1.1379
16784SOL     OW51792   3.237   6.093   0.683 -0.0061 -0.7885  0.0745
16784SOL    HW151793   3.262   6.004   0.657 -1.5547 -1.5920  1.2309
16784SOL    HW251794   3.269   6.102   0.773  0.0401 -0.2065  0.0053
16785SOL     OW51795   0.861   7.475  11.879 -0.2203  0.4388 -0.0650
16785SOL    HW151796   0.825   7.563  11.886  0.7403  0.8482 -0.1300
16785SOL    HW251797   0.949   7.482  11.916  0.4068 -0.1513 -1.3797
16786SOL     OW51798   5.780   3.428   4.629 -0.3146 -0.0554  0.1164
16786SOL    HW151799   5.849   3.489   4.655  2.0326 -2.1665 -0.8108
16786SOL    HW251800   5.755   3.457   4.540 -0.1936  0.3301  0.2068
16787SOL     OW51801   7.638   2.863   2.529 -0.1545  0.1682 -0.3233
16787SOL    HW151802   7.600   2.785   2.489 -0.0867  0.0918 -0.2375
16787SOL    HW251803   7.675   2.833   2.612 -0.8908  0.4584  0.1118
16788SOL     OW51804   5.769   3.144  11.002 -0.2596  0.4882  0.0567
16788SOL    HW151805   5.856   3.112  10.978  0.7426  3.9714 -1.7394
16788SOL    HW251806   5.714   3.066  11.005  3.1117 -2.0712  2.6256
16789SOL     OW51807   7.007   5.853   6.451 -0.6601 -0.2600 -0.0633
16789SOL    HW151808   7.058   5.877   6.528 -2.3902  1.2018  0.7154
16789SOL    HW251809   7.051   5.897   6.378 -0.0792 -0.0881  0.3875
16790SOL     OW51810   7.319   1.039   5.993  0.5189 -0.5805  0.3662
16790SOL    HW151811   7.383   0.967   5.993  1.5055  0.2556 -0.9642
16790SOL    HW251812   7.273   1.031   5.910  0.1015 -0.1211  0.5447
16791SOL     OW51813   3.258   6.964  11.224  0.6953  0.0096  0.4066
16791SOL    HW151814   3.303   6.955  11.140  0.6907 -0.5215  0.4590
16791SOL    HW251815   3.276   7.054  11.252  0.2778  0.3538 -0.4032
16792SOL     OW51816   6.869   5.016  12.362 -0.0669 -0.1456 -0.0858
16792SOL    HW151817   6.823   5.089  12.403  1.4750  1.7675 -1.6017
16792SOL    HW251818   6.955   5.051  12.340  0.4044 -2.1397 -1.6946
16793SOL     OW51819   5.338   4.092  11.052  0.1749  0.5823 -0.1201
16793SOL    HW151820   5.244   4.104  11.061  0.0433 -0.9903  1.0702
16793SOL    HW251821   5.347   4.023  10.986  0.6559  2.6435 -2.3472
16794SOL     OW51822   6.986   4.103   1.645 -0.1891  0.1427  0.1574
16794SOL    HW151823   7.074   4.068   1.660  0.5688  1.5620 -0.7119
16794SOL    HW251824   6.933   4.027   1.622  1.1838 -0.5573 -0.8316
16795SOL     OW51825   6.219   3.953   5.665  0.7687 -0.2832  0.4506
16795SOL    HW151826   6.221   3.860   5.643 -0.3885 -0.1302 -0.4022
16795SOL    HW251827   6.129   3.980   5.647  1.4035  1.2874 -0.5995
16796SOL     OW51828   1.238   4.790  10.852  0.6615 -0.1592 -0.8828
16796SOL    HW151829   1.169   4.756  10.908  0.7945 -0.3023 -0.8033
16796SOL    HW251830   1.208   4.877  10.826  1.3828  0.6812  0.8588
16797SOL     OW51831   5.375   1.106   8.500  0.2624 -0.3531 -0.0178
16797SOL    HW151832   5.336   1.191   8.480  1.7460  0.9197  2.0742
16797SOL    HW251833   5.357   1.052   8.423 -1.0238  1.7331 -1.2629
16798SOL     OW51834   0.882   7.387   3.573 -0.2370 -0.5381 -0.5380
16798SOL    HW151835   0.817   7.354   3.512 -1.9802 -1.0546  1.4658
16798SOL    HW251836   0.893   7.479   3.550 -1.0860 -0.6449 -1.3954
16799SOL     OW51837   0.903   2.951   1.452 -0.4579 -0.7063 -0.2684
16799SOL    HW151838   0.964   3.012   1.494 -1.4060  0.2627 -0.2707
16799SOL    HW251839   0.930   2.949   1.360  0.6954 -1.6989  0.0582
16800SOL     OW51840   2.911   1.926   9.612  0.1420  0.1181 -0.0732
16800SOL    HW151841   2.858   1.959   9.539  0.0254 -0.1653 -0.1212
16800SOL    HW251842   2.945   1.842   9.580  0.9124  0.4597 -0.1767
16801SOL     OW51843   5.445   2.910   6.020  0.0245 -0.8288  0.6565
16801SOL    HW151844   5.524   2.856   6.010 -0.2727 -1.7395  2.6972
16801SOL    HW251845   5.373   2.851   5.996 -0.1234 -0.2472 -0.4040
16802SOL     OW51846   3.018   3.969   1.958 -0.1002 -0.1842 -0.5878
16802SOL    HW151847   2.938   3.945   2.004  0.8177 -0.6407  0.8078
16802SOL    HW251848   3.037   3.894   1.902 -0.1959 -0.4203 -0.3035
16803SOL     OW51849   0.343   1.415   9.389 -0.0375  0.0351 -0.6424
16803SOL    HW151850   0.290   1.427   9.310  1.3311  1.3929 -1.4123
16803SOL    HW251851   0.327   1.325   9.415 -1.1234 -0.2148 -2.0246
16804SOL     OW51852   5.053   2.112   1.675  0.3017  0.5337  0.0503
16804SOL    HW151853   5.010   2.129   1.591  0.8814  2.2781  0.0700
16804SOL    HW251854   5.004   2.164   1.738 -0.1223 -0.7568  0.8309
16805SOL     OW51855   5.083   5.744   8.132  0.4768 -0.1206  0.2692
16805SOL    HW151856   5.172   5.772   8.154 -0.2875  0.6543  2.6559
16805SOL    HW251857   5.032   5.760   8.211 -1.4472 -2.1926 -0.4381
16806SOL     OW51858   6.700   7.865   7.381  0.7579 -0.0847  0.6305
16806SOL    HW151859   6.792   7.891   7.374  1.3725 -2.0809  0.5837
16806SOL    HW251860   6.675   7.890   7.470  0.9183  1.6827  0.2024
16807SOL     OW51861   1.260   3.324   7.071  0.1939 -0.2701 -0.7060
16807SOL    HW151862   1.164   3.315   7.070  0.1279  0.2211  0.1105
16807SOL    HW251863   1.292   3.240   7.039 -0.5327  0.0226 -2.2636
16808SOL     OW51864   7.384   1.125   6.258 -0.3576  0.0900  0.0951
16808SOL    HW151865   7.365   1.120   6.164 -1.2034  0.5853  0.2285
16808SOL    HW251866   7.328   1.196   6.290  0.9808  0.9126  0.7143
16809SOL     OW51867   1.387   5.427   3.550 -0.2285  0.4720  0.4711
16809SOL    HW151868   1.383   5.514   3.591 -0.9571  0.5527  0.2374
16809SOL    HW251869   1.327   5.432   3.477 -0.4879 -0.3220  0.6182
16810SOL     OW51870   5.721   2.700   1.459 -0.3286 -0.2110  0.4276
16810SOL    HW151871   5.667   2.669   1.532  0.2548 -2.1534  0.0837
16810SOL    HW251872   5.663   2.760   1.411 -1.9857 -1.7341  0.4267
16811SOL     OW51873   6.572   0.420   0.471 -0.3435  0.2010  0.2791
16811SOL    HW151874   6.615   0.471   0.402  1.4722 -3.3651 -1.5162
16811SOL    HW251875   6.481   0.412   0.442  0.2730 -0.7978 -1.5430
16812SOL     OW51876   4.385   0.272  12.222 -0.3952  0.5696  0.5433
16812SOL    HW151877   4.293   0.256  12.199 -0.3046 -1.1932  1.2264
16812SOL    HW251878   4.434   0.253  12.142 -0.4756 -0.8434  0.7860
16813SOL     OW51879   6.884   0.641  10.340 -0.4213  0.2659  1.1484
16813SOL    HW151880   6.800   0.626  10.382 -0.1958 -0.5127  1.3461
16813SOL    HW251881   6.895   0.567  10.280 -0.5148  1.0926  0.0639
16814SOL     OW51882   3.791   7.530   1.785 -0.4388  0.2461 -0.5665
16814SOL    HW151883   3.701   7.550   1.811 -0.1623  0.4240  0.2669
16814SOL    HW251884   3.825   7.613   1.750 -0.6550  0.1308 -1.0561
16815SOL     OW51885   7.239   3.413   1.198 -0.5330 -0.2418  0.5732
16815SOL    HW151886   7.290   3.484   1.159 -0.8705 -0.7170 -0.8064
16815SOL    HW251887   7.172   3.393   1.133 -0.6567 -1.5987  1.0703
16816SOL     OW51888   1.882   2.309   4.898  0.2791 -0.3992  0.0898
16816SOL    HW151889   1.939   2.249   4.849  3.3124  1.9852  0.3814
16816SOL    HW251890   1.867   2.265   4.981  2.0960 -0.9969  0.1495
16817SOL     OW51891   4.967   5.340   0.025  0.3023 -0.6841  0.5052
16817SOL    HW151892   5.046   5.296  -0.006 -0.0393 -2.4434  1.9759
16817SOL    HW251893   4.999   5.408   0.085  0.7322 -1.0429  0.6867
16818SOL     OW51894   3.400   6.899  10.994 -0.2748 -0.0241  0.1613
16818SOL    HW151895   3.424   6.842  10.920 -0.3665 -0.1539  0.2322
16818SOL    HW251896   3.484   6.929  11.028 -0.2522  1.0992 -0.8217
16819SOL     OW51897   3.737   2.551   6.714  0.2621 -0.9556  0.3961
16819SOL    HW151898   3.648   2.518   6.723  0.2523 -0.6136  1.7142
16819SOL    HW251899   3.784   2.480   6.670 -1.2763 -0.0051 -3.1062
16820SOL     OW51900   2.603   2.150   8.344  0.0408  0.1411  0.2957
16820SOL    HW151901   2.641   2.232   8.377 -0.1578  0.1849  0.4158
16820SOL    HW251902   2.571   2.106   8.422 -0.4278  0.2433  0.1613
16821SOL     OW51903   4.680   1.209   8.338 -0.4663  0.2262  0.3688
16821SOL    HW151904   4.699   1.263   8.415  0.4713  1.0338 -0.4071
16821SOL    HW251905   4.646   1.127   8.374 -1.2341  1.0511  1.6008
16822SOL     OW51906   7.051   6.295   6.822  0.6505  0.1194 -0.2285
16822SOL    HW151907   7.141   6.281   6.852  0.6817  0.6958 -0.0383
16822SOL    HW251908   7.035   6.225   6.759  1.0628 -0.2826  0.1059
16823SOL     OW51909   7.454   5.230  11.786 -0.4940 -0.4739 -0.3806
16823SOL    HW151910   7.416   5.317  11.796  0.5284  0.1567 -1.6713
16823SOL    HW251911   7.382   5.170  11.807 -1.1985  0.6611  0.5835
16824SOL     OW51912   5.347   0.150   2.947 -0.8146 -0.3858  0.5239
16824SOL    HW151913   5.307   0.077   2.994  2.1983 -1.4588  1.6422
16824SOL    HW251914   5.418   0.110   2.897 -0.6898  1.4768 -0.9085
16825SOL     OW51915   0.726   7.374  11.565 -0.2752  0.2923 -0.5581
16825SOL    HW151916   0.652   7.416  11.522 -1.4857  0.0243  1.1462
16825SOL    HW251917   0.759   7.439  11.627 -1.0135 -0.5696  0.8035
16826SOL     OW51918   0.355   6.382   6.216 -0.8038 -0.2639  0.5496
16826SOL    HW151919   0.289   6.449   6.198 -0.6647  0.0278  1.0908
16826SOL    HW251920   0.324   6.339   6.296 -0.7372 -0.6406  0.3697
16827SOL     OW51921   4.831   7.339   1.903  0.0298  0.1055  0.4093
16827SOL    HW151922   4.899   7.307   1.962  0.1953  1.9268  1.2590
16827SOL    HW251923   4.778   7.262   1.884  0.1936 -0.6380  2.6400
16828SOL     OW51924   2.816   0.195   6.684  0.3921 -0.5115  0.7433
16828SOL    HW151925   2.741   0.161   6.635 -0.3257  0.1248  1.3804
16828SOL    HW251926   2.785   0.199   6.774  0.5986  1.3825  0.7543
16829SOL     OW51927   7.221   7.792   5.696  0.0095 -0.4546  0.1459
16829SOL    HW151928   7.256   7.863   5.643 -1.2494  0.8763  1.0248
16829SOL    HW251929   7.175   7.735   5.634  0.9342 -0.4720 -0.5478
16830SOL     OW51930   4.802   5.915   5.349  0.0386  0.2470  0.2621
16830SOL    HW151931   4.814   6.001   5.390 -1.0207  0.8030 -0.5586
16830SOL    HW251932   4.802   5.932   5.255 -2.3887 -0.2957  0.0927
16831SOL     OW51933   3.558   3.106   5.020  0.1348  0.2136  0.3071
16831SOL    HW151934   3.539   3.175   4.956 -0.2419  0.5191  0.7412
16831SOL    HW251935   3.646   3.076   4.998 -0.0155  0.2701 -0.3932
16832SOL     OW51936   4.102   0.471   7.909  0.8700  0.0719 -0.3185
16832SOL    HW151937   4.158   0.405   7.950 -0.7814 -1.8797 -1.0561
16832SOL    HW251938   4.150   0.499   7.831  1.1802 -0.9557 -0.5028
16833SOL     OW51939   1.347   3.688  10.001  0.1382 -0.1655  0.5196
16833SOL    HW151940   1.296   3.639  10.066 -0.7974  1.5384  1.1494
16833SOL    HW251941   1.412   3.735  10.053  0.9800 -0.6757 -0.0621
16834SOL     OW51942   5.069   6.483   3.761 -0.1289 -0.4872  0.2682
16834SOL    HW151943   5.086   6.577   3.751 -1.3204 -0.3032 -0.1202
16834SOL    HW251944   5.099   6.444   3.679 -1.1896 -0.2182 -0.2513
16835SOL     OW51945   0.013   6.443   7.945 -0.2179 -0.0307 -0.3217
16835SOL    HW151946  -0.037   6.361   7.945 -0.5522  0.1566  1.2449
16835SOL    HW251947  -0.006   6.481   7.859 -2.9783  0.1452  0.2647
16836SOL     OW51948   4.819   3.067   0.710 -0.8228  0.3412 -0.1012
16836SOL    HW151949   4.887   3.123   0.673 -0.6698 -0.3683 -0.8944
16836SOL    HW251950   4.738   3.116   0.697 -0.8332 -0.0904 -1.7905
16837SOL     OW51951   4.340   6.208   2.746 -0.1776  0.6570  0.1521
16837SOL    HW151952   4.259   6.256   2.726 -0.0159  0.5747 -0.7725
16837SOL    HW251953   4.312   6.118   2.760 -0.0803  0.2111 -2.1127
16838SOL     OW51954   1.606   1.451   3.024  0.0571 -0.0333 -0.3849
16838SOL    HW151955   1.532   1.432   2.966 -0.7156  0.8971  0.2634
16838SOL    HW251956   1.573   1.518   3.084  0.7575 -1.1417  1.2852
16839SOL     OW51957   1.317   5.548   6.921 -0.2403 -0.1181  0.4703
16839SOL    HW151958   1.254   5.580   6.856 -0.1325 -1.1299 -0.1527
16839SOL    HW251959   1.399   5.541   6.873 -0.2500 -1.2577  0.5965
16840SOL     OW51960   5.053   4.092   8.843 -0.2081 -0.2986  0.3312
16840SOL    HW151961   5.142   4.126   8.847 -0.2545  0.3508 -2.3993
16840SOL    HW251962   5.026   4.085   8.935  1.9790  1.2059  1.1713
16841SOL     OW51963   0.815   6.959   8.500 -0.0925 -0.7513 -0.2796
16841SOL    HW151964   0.813   7.005   8.416  1.3563  1.7646  0.9568
16841SOL    HW251965   0.727   6.924   8.511 -0.9400  0.7975 -1.8169
16842SOL     OW51966   1.754   2.940   9.825 -0.1992 -0.2408 -0.1753
16842SOL    HW151967   1.847   2.919   9.826 -0.1418 -0.3340 -2.1153
16842SOL    HW251968   1.748   3.024   9.870  0.6446 -0.7606  0.9616
16843SOL     OW51969   2.591   7.120   6.944 -0.3779 -0.1440 -0.1586
16843SOL    HW151970   2.563   7.030   6.928 -0.5005 -0.0009 -0.7841
16843SOL    HW251971   2.615   7.122   7.036 -0.8450 -0.6960 -0.0219
16844SOL     OW51972   5.749   4.741   7.791  0.6257  0.1835  0.0586
16844SOL    HW151973   5.670   4.705   7.751 -0.0471  1.4046  0.2690
16844SOL    HW251974   5.748   4.708   7.881  0.2068  0.4252  0.1442
16845SOL     OW51975   1.956   7.850   3.568 -0.0562  0.4007  0.0380
16845SOL    HW151976   1.880   7.908   3.565 -0.0604  0.4258 -3.7606
16845SOL    HW251977   1.932   7.775   3.514  2.1237 -0.2174 -0.1836
16846SOL     OW51978   4.028   5.463   7.378 -0.1263  0.0229  0.3364
16846SOL    HW151979   4.077   5.524   7.434  0.5534 -0.9053  0.7899
16846SOL    HW251980   4.051   5.490   7.289 -0.0181  0.5648  0.5200
16847SOL     OW51981   6.457   4.938   3.687 -0.2720 -0.8905  0.2340
16847SOL    HW151982   6.530   4.892   3.645  1.5486  0.8340  1.2944
16847SOL    HW251983   6.414   4.871   3.740  0.8093 -1.8921 -0.0903
16848SOL     OW51984   2.405   4.462   7.199 -0.2990  0.2206 -0.0625
16848SOL    HW151985   2.457   4.395   7.155 -0.2691  0.8746 -1.0345
16848SOL    HW251986   2.340   4.412   7.249  0.2842 -0.5543 -0.0571
16849SOL     OW51987   6.888   1.040   7.097  0.4713 -0.4692  0.1708
16849SOL    HW151988   6.912   1.072   7.184 -1.8944 -2.6861  1.7808
16849SOL    HW251989   6.921   0.950   7.096 -1.3786 -1.1835 -0.3104
16850SOL     OW51990   7.327   7.509   4.920  0.1587  0.1367  0.2470
16850SOL    HW151991   7.362   7.533   4.834  1.8398  0.7688  1.0556
16850SOL    HW251992   7.397   7.457   4.961 -0.9658 -0.9105  0.9186
16851SOL     OW51993   2.762   6.016   4.547 -0.3650  0.0562  0.4940
16851SOL    HW151994   2.848   6.020   4.504  0.3447 -0.6911  1.7664
16851SOL    HW251995   2.782   6.019   4.641 -1.7351 -0.1509  0.8170
16852SOL     OW51996   0.927   3.168  11.751  0.5136 -0.0398  0.0676
16852SOL    HW151997   0.951   3.174  11.658  1.3064 -0.1291  0.2622
16852SOL    HW251998   0.899   3.257  11.774  0.2708 -0.0284 -0.2698
16853SOL     OW51999   5.433   1.707  12.014  0.3684  0.3715 -0.7262
16853SOL    HW152000   5.498   1.690  11.946  2.5104 -1.4811  1.6002
16853SOL    HW252001   5.387   1.624  12.025  0.7335  0.3313  0.7202
16854SOL     OW52002   2.757   2.460   1.952  0.2763 -0.2071  0.2754
16854SOL    HW152003   2.781   2.372   1.923  0.9254 -0.2281  0.8647
16854SOL    HW252004   2.676   2.446   2.002  1.0216 -0.6484  1.3923
16855SOL     OW52005   0.588   1.309   7.410  0.0372 -0.0287  0.1233
16855SOL    HW152006   0.539   1.298   7.491  0.0094 -0.5451  0.0369
16855SOL    HW252007   0.679   1.318   7.439  0.0856 -0.6732  0.1914
16856SOL     OW52008   3.264   5.056   7.385 -0.4668 -0.4345  0.4542
16856SOL    HW152009   3.270   5.126   7.320  0.9985 -0.4999  0.4676
16856SOL    HW252010   3.172   5.032   7.387 -0.9686  1.3382  0.2808
16857SOL     OW52011   2.906   4.683  11.903 -0.6606  0.3222  0.6439
16857SOL    HW152012   2.819   4.712  11.927 -1.6722 -1.6484 -0.3338
16857SOL    HW252013   2.907   4.685  11.808  0.1185 -0.3166  0.6232
16858SOL     OW52014   1.602   2.938   1.614  0.1531  0.1581  0.1688
16858SOL    HW152015   1.543   3.002   1.654 -0.0849  1.1531 -1.6960
16858SOL    HW252016   1.675   2.990   1.581  1.3695 -0.8914  1.0976
16859SOL     OW52017   5.449   4.878   3.898 -0.3092 -0.1152 -0.2191
16859SOL    HW152018   5.518   4.812   3.904 -0.3884 -0.2665 -0.9434
16859SOL    HW252019   5.480   4.949   3.955 -0.0933 -0.6516  0.3420
16860SOL     OW52020   6.277   3.142  11.055 -0.0537 -0.1222 -0.4048
16860SOL    HW152021   6.324   3.224  11.044 -1.5551  0.7144 -0.7951
16860SOL    HW252022   6.300   3.113  11.143 -0.7254  1.5358  0.3540
16861SOL     OW52023   5.722   7.893   7.352 -0.2245 -0.0688 -0.6183
16861SOL    HW152024   5.789   7.919   7.415 -0.5790 -1.2082  0.2643
16861SOL    HW252025   5.675   7.973   7.332  1.1362  0.6826 -0.9533
16862SOL     OW52026   1.446   7.769  12.010  0.2439 -0.3221 -0.2282
16862SOL    HW152027   1.382   7.704  12.039  0.7426 -1.5906 -1.8355
16862SOL    HW252028   1.421   7.849  12.056 -1.8086 -1.0530  0.0287
16863SOL     OW52029   2.430   2.890   0.397  0.4440 -0.0331  0.1414
16863SOL    HW152030   2.376   2.928   0.328 -0.8520 -1.2245  0.4504
16863SOL    HW252031   2.493   2.835   0.351  0.2626 -0.0113 -0.1330
16864SOL     OW52032   2.478   1.617   0.125 -0.0137  0.1411  0.5410
16864SOL    HW152033   2.399   1.648   0.082  0.0269 -0.6588 -0.1426
16864SOL    HW252034   2.451   1.596   0.214 -0.2076  1.3515  0.7872
16865SOL     OW52035   4.581   5.773  10.458  0.7119  0.2858  0.1784
16865SOL    HW152036   4.540   5.781  10.372  2.1161  0.7853 -0.4707
16865SOL    HW252037   4.552   5.688  10.492  2.1660 -1.1088 -1.8922
16866SOL     OW52038   6.484   5.292   9.064  0.3708  0.3287  0.1186
16866SOL    HW152039   6.528   5.264   9.144  0.3719 -0.2190 -0.0748
16866SOL    HW252040   6.490   5.388   9.066 -1.8108  0.5193  2.0421
16867SOL     OW52041   2.620   7.839   2.960 -0.4333 -0.1249  0.5598
16867SOL    HW152042   2.614   7.883   2.875  0.7320 -0.1492  0.4429
16867SOL    HW252043   2.593   7.905   3.024 -3.9589 -0.8812  0.0517
16868SOL     OW52044   7.960   5.157   3.569  0.2669  0.3114  0.2278
16868SOL    HW152045   8.042   5.109   3.580 -0.0590 -0.5729 -1.0291
16868SOL    HW252046   7.895   5.103   3.614  0.5101  1.5491  2.1651
16869SOL     OW52047   5.052   1.995   0.417 -0.0476 -0.2224  0.5186
16869SOL    HW152048   5.142   2.022   0.435  0.6815 -0.9319 -1.7918
16869SOL    HW252049   5.040   2.011   0.324 -2.2802 -0.3300  0.7424
16870SOL     OW52050   0.315   7.678   8.351 -0.2330 -0.2907  0.1597
16870SOL    HW152051   0.344   7.704   8.439  0.6703  2.2273 -0.7898
16870SOL    HW252052   0.247   7.742   8.329  1.1928  0.6219 -1.8455
16871SOL     OW52053   1.476   7.649  11.128 -0.0017  0.2019  0.4320
16871SOL    HW152054   1.517   7.640  11.214  0.1386 -0.2135  0.3272
16871SOL    HW252055   1.382   7.639  11.145 -0.1795  2.1670  0.8148
16872SOL     OW52056   3.029   0.692   6.126  0.1977 -0.1597 -0.6814
16872SOL    HW152057   2.971   0.663   6.196  0.7572  0.0650 -0.1085
16872SOL    HW252058   3.021   0.787   6.126  0.6780 -0.1148 -0.4846
16873SOL     OW52059   2.850   2.817   1.205 -0.0890 -0.0466 -0.3225
16873SOL    HW152060   2.833   2.843   1.296  0.4080  2.0085 -0.7688
16873SOL    HW252061   2.942   2.841   1.191 -0.9502  2.5395 -2.2278
16874SOL     OW52062   7.196   0.030   8.990  0.2867  0.2425  0.1275
16874SOL    HW152063   7.175   0.060   9.078  2.5557  2.1952  0.1083
16874SOL    HW252064   7.175   0.105   8.934 -0.9316 -0.8976 -1.0189
16875SOL     OW52065   7.727   0.604   9.818  0.0963  0.7421  0.3464
16875SOL    HW152066   7.718   0.616   9.723 -0.3226  0.0798  0.2989
16875SOL    HW252067   7.642   0.630   9.854 -0.0900  0.0156  0.4421
16876SOL     OW52068   6.338   3.560   9.479  0.3042  0.2357 -0.3059
16876SOL    HW152069   6.364   3.651   9.491 -0.1821  0.4638 -0.9221
16876SOL    HW252070   6.338   3.523   9.567 -1.8457  1.4767  0.2959
16877SOL     OW52071   3.550   6.143   7.601  0.2491 -0.3790  0.2261
16877SOL    HW152072   3.627   6.119   7.549 -0.1079  0.5699 -0.7946
16877SOL    HW252073   3.561   6.237   7.616 -0.7177 -0.2242  0.0342
16878SOL     OW52074   3.347   6.936   0.095 -0.2942  0.1568 -0.0199
16878SOL    HW152075   3.274   6.940   0.156 -0.0129 -1.9019  0.5485
16878SOL    HW252076   3.420   6.976   0.141 -0.6962  0.9032 -0.0216
16879SOL     OW52077   1.960   6.109   3.312  0.2142  0.1128 -0.2356
16879SOL    HW152078   1.876   6.091   3.271  0.5723  2.1970 -2.0770
16879SOL    HW252079   1.944   6.102   3.406 -1.8616 -0.0804 -0.5751
16880SOL     OW52080   5.637   0.496  11.043  0.1495 -0.9505 -0.6499
16880SOL    HW152081   5.613   0.462  10.957  1.2905 -2.4131 -0.4284
16880SOL    HW252082   5.732   0.504  11.040  0.1809 -0.7838  0.3894
16881SOL     OW52083   7.926   5.995  11.133 -0.0644  0.1269  0.2150
16881SOL    HW152084   7.853   6.055  11.149  0.7401  1.3068 -0.3954
16881SOL    HW252085   7.974   5.992  11.216 -0.3317  0.0069  0.3662
16882SOL     OW52086   4.451   6.432   1.858  0.2956  0.1129 -0.1937
16882SOL    HW152087   4.386   6.405   1.923  0.6356 -0.5452 -0.1169
16882SOL    HW252088   4.535   6.404   1.895  0.6501  1.1185 -0.2003
16883SOL     OW52089   2.906   3.080   3.321  0.5337 -0.3744  0.4062
16883SOL    HW152090   2.823   3.068   3.366 -0.4211  0.5068 -1.0189
16883SOL    HW252091   2.940   3.162   3.356  1.6903 -1.5878  2.2402
16884SOL     OW52092   1.200   4.827   6.690  0.1076 -0.2969 -0.3619
16884SOL    HW152093   1.228   4.776   6.614  1.3845  1.2667 -0.9921
16884SOL    HW252094   1.165   4.908   6.653 -1.7249 -0.5733  0.6275
16885SOL     OW52095   4.832   0.698  11.754  0.1707 -0.2563 -0.7116
16885SOL    HW152096   4.841   0.729  11.844  2.0130  1.4809 -1.4134
16885SOL    HW252097   4.873   0.611  11.755 -2.0295 -1.3628  0.5764
16886SOL     OW52098   2.248   1.234   2.267 -0.5406  0.1056 -0.4129
16886SOL    HW152099   2.322   1.233   2.328 -1.3751  1.8424  0.7155
16886SOL    HW252100   2.239   1.326   2.242 -0.9751 -0.4051 -2.2599
16887SOL     OW52101   7.673   1.996  12.305  0.1586 -0.6501  0.1280
16887SOL    HW152102   7.663   2.039  12.220 -1.6054 -1.9204 -0.3474
16887SOL    HW252103   7.753   2.034  12.341  1.9298 -1.3027 -2.8065
16888SOL     OW52104   4.390   7.889   1.793 -0.1338 -0.2226  0.1788
16888SOL    HW152105   4.413   7.797   1.803  1.3376  0.0316 -0.6924
16888SOL    HW252106   4.447   7.921   1.723  0.1256  1.6151  1.1726
16889SOL     OW52107   1.750   1.617  10.731  0.4796 -0.0882  0.7281
16889SOL    HW152108   1.679   1.614  10.667 -0.7224 -0.1315  2.0193
16889SOL    HW252109   1.773   1.710  10.737 -0.2617  0.0823  1.1116
16890SOL     OW52110   0.960   1.762   2.026  0.3735 -0.6340  0.2033
16890SOL    HW152111   0.999   1.689   1.979 -2.3045 -1.2410 -1.2924
16890SOL    HW252112   0.938   1.825   1.957  1.1549  0.8951  1.2900
16891SOL     OW52113   2.845   1.024  12.204 -0.1369 -0.1637 -0.0516
16891SOL    HW152114   2.819   1.049  12.293 -0.5454 -1.1552  0.1214
16891SOL    HW252115   2.856   1.108  12.158  0.2624  0.3613  0.9763
16892SOL     OW52116   3.947   1.181   1.358  0.2140 -0.0416  0.1190
16892SOL    HW152117   3.999   1.123   1.303  0.7268 -0.8988  1.4617
16892SOL    HW252118   3.857   1.150   1.348 -0.0482  1.1843 -1.8844
16893SOL     OW52119   0.133   2.477   6.397 -0.7380 -0.1383 -0.1954
16893SOL    HW152120   0.199   2.455   6.462  0.4724  0.0471 -1.3054
16893SOL    HW252121   0.097   2.561   6.425 -2.0909 -1.2511  1.5828
16894SOL     OW52122   1.033   6.340   0.819 -0.7180  0.7077 -0.3796
16894SOL    HW152123   0.999   6.260   0.859 -0.2813 -0.6631 -2.5956
16894SOL    HW252124   0.959   6.375   0.770 -0.8508  1.6087  0.4297
16895SOL     OW52125   0.118   0.889   3.877  0.6022  0.0825 -0.1058
16895SOL    HW152126   0.127   0.820   3.942 -0.2509  1.3293  1.3963
16895SOL    HW252127   0.165   0.964   3.915  0.3754  0.7474 -1.0851
16896SOL     OW52128   2.127   1.558  11.877  0.3260  0.0869 -0.4302
16896SOL    HW152129   2.081   1.498  11.818 -0.3402 -1.2150  1.3411
16896SOL    HW252130   2.210   1.576  11.833 -0.5921  0.0637 -2.2701
16897SOL     OW52131   6.124   7.661   3.543 -0.1645  0.1168  0.0765
16897SOL    HW152132   6.076   7.601   3.600 -1.5666 -0.5532 -1.7214
16897SOL    HW252133   6.089   7.748   3.565 -2.3456 -0.3716 -1.2745
16898SOL     OW52134   6.516   2.335   4.697  0.1893 -0.1878  0.2441
16898SOL    HW152135   6.530   2.266   4.633 -1.1585  0.4607 -0.8126
16898SOL    HW252136   6.426   2.323   4.726  0.0966  0.8122  0.4120
16899SOL     OW52137   0.075   5.515   0.443 -0.2253 -0.0426  0.3853
16899SOL    HW152138   0.130   5.438   0.427  0.3911  0.4515  0.0953
16899SOL    HW252139   0.062   5.553   0.356 -0.8336 -0.0207  0.4855
16900SOL     OW52140   7.821   4.256   6.377 -0.6336 -0.3207  0.1173
16900SOL    HW152141   7.893   4.249   6.315 -0.4585 -0.0983  0.2947
16900SOL    HW252142   7.746   4.281   6.323 -0.8337 -1.6121 -0.2287
16901SOL     OW52143   2.529   1.627   4.809 -0.1262 -0.1248 -0.2856
16901SOL    HW152144   2.536   1.548   4.755  0.8054 -1.7795  2.0639
16901SOL    HW252145   2.436   1.650   4.806 -0.1917 -0.5123 -2.0407
16902SOL     OW52146   5.629   4.494  11.354  0.8154 -0.0414  0.5449
16902SOL    HW152147   5.678   4.421  11.317  1.0498 -1.1278  2.8244
16902SOL    HW252148   5.543   4.457  11.377  0.8980  0.3851  1.6195
16903SOL     OW52149   2.818   4.424   7.515 -0.1707 -0.1675 -0.1621
16903SOL    HW152150   2.803   4.330   7.515 -0.3497 -0.1546  0.7023
16903SOL    HW252151   2.748   4.459   7.571  0.4182  0.3720  0.2576
16904SOL     OW52152   4.630   0.884   0.285 -0.5066 -0.8249 -0.0419
16904SOL    HW152153   4.656   0.954   0.225  0.5432 -0.0912  1.2152
16904SOL    HW252154   4.563   0.924   0.340  0.2479 -0.7219  0.8193
16905SOL     OW52155   1.628   6.054   6.336 -0.1860  0.0833  0.0934
16905SOL    HW152156   1.573   6.129   6.314  0.5484  1.3375  2.3388
16905SOL    HW252157   1.578   5.978   6.305 -1.6584  1.3798 -0.8237
16906SOL     OW52158   1.405   6.343   7.983 -0.7536  0.5168 -0.3279
16906SOL    HW152159   1.372   6.369   8.069 -0.6890  1.2981 -0.5251
16906SOL    HW252160   1.327   6.334   7.929 -0.7155  1.8769 -0.6635
16907SOL     OW52161   5.070   7.266   5.459  0.2860  0.0581 -0.0851
16907SOL    HW152162   5.126   7.309   5.524 -1.0471  0.2604  0.9718
16907SOL    HW252163   5.003   7.221   5.510 -0.1796 -0.6834 -1.2961
16908SOL     OW52164   5.180   6.741   0.116  0.7846 -0.8175  0.0755
16908SOL    HW152165   5.185   6.671   0.051 -0.6795 -0.7852 -0.0969
16908SOL    HW252166   5.132   6.703   0.190  1.2138 -0.4235  0.5706
16909SOL     OW52167   0.725   0.603   6.926 -0.2976  0.2469  0.1349
16909SOL    HW152168   0.633   0.585   6.910  0.4376 -2.1360 -2.2386
16909SOL    HW252169   0.730   0.697   6.938 -2.9456  0.5229 -0.4437
16910SOL     OW52170   6.535   3.655  10.801  0.0562 -0.1146 -0.2700
16910SOL    HW152171   6.597   3.613  10.859  0.4842  0.8147 -0.0449
16910SOL    HW252172   6.483   3.583  10.765 -0.6222 -0.6749  1.7005
16911SOL     OW52173   4.841   7.523   5.850  0.0819  0.1840 -0.0128
16911SOL    HW152174   4.925   7.568   5.838 -0.6057  1.1550 -1.4054
16911SOL    HW252175   4.808   7.555   5.934  1.1841 -0.3798  0.6626
16912SOL     OW52176   2.901   6.939  11.326  0.6606  0.0042  0.1023
16912SOL    HW152177   2.886   6.998  11.401  0.9991  0.4663 -0.1891
16912SOL    HW252178   2.951   6.866  11.363  1.2786  0.4824  0.2273
16913SOL     OW52179   2.913   4.166   8.371  0.2802 -0.0383 -0.0327
16913SOL    HW152180   2.998   4.130   8.345  0.6698 -0.6147  1.8446
16913SOL    HW252181   2.849   4.115   8.321  1.0106  0.1853 -1.2251
16914SOL     OW52182   3.890   5.793   6.572  0.0278 -0.0726 -0.5032
16914SOL    HW152183   3.816   5.744   6.608 -0.1583  0.9536  0.5850
16914SOL    HW252184   3.856   5.882   6.559  0.6529  0.0466 -1.4076
16915SOL     OW52185   5.058   4.575   5.663  0.1998 -0.0233 -0.3292
16915SOL    HW152186   4.991   4.551   5.599  0.4603 -1.0121 -0.2540
16915SOL    HW252187   5.039   4.666   5.685  0.8052  0.7142 -2.6582
16916SOL     OW52188   5.447   4.285   4.953 -0.1389 -0.0030 -0.1269
16916SOL    HW152189   5.380   4.335   4.905  0.5713  2.0990  0.9469
16916SOL    HW252190   5.529   4.308   4.910  0.2392  0.0559  0.6126
16917SOL     OW52191   0.174   6.863   3.708  0.6011  0.2732 -0.2549
16917SOL    HW152192   0.211   6.945   3.676  1.2401  0.5349  1.0633
16917SOL    HW252193   0.237   6.796   3.681  1.0623  0.4739  0.2813
16918SOL     OW52194   4.424   5.176  12.401  0.0880 -0.0499 -0.7574
16918SOL    HW152195   4.430   5.097  12.347 -0.3748 -1.5501  1.2960
16918SOL    HW252196   4.506   5.178  12.450  0.4486  1.2364 -1.3565
16919SOL     OW52197   0.357   3.416   8.058  0.0469  0.4603 -0.0535
16919SOL    HW152198   0.281   3.454   8.014  0.6358  0.6047 -0.9804
16919SOL    HW252199   0.327   3.333   8.093 -0.5644  0.5690 -0.3171
16920SOL     OW52200   3.841   2.866   5.665  0.1527  0.3048 -0.3337
16920SOL    HW152201   3.753   2.898   5.643 -0.0757 -1.3693 -2.2030
16920SOL    HW252202   3.828   2.775   5.689  1.4750 -0.3817 -1.9978
16921SOL     OW52203   3.910   0.292   2.445 -0.7988  0.3897  0.8220
16921SOL    HW152204   3.817   0.277   2.459 -0.7448  0.0814  0.8633
16921SOL    HW252205   3.953   0.224   2.497 -0.6156 -2.6739 -2.9470
16922SOL     OW52206   0.433   2.572   9.192  0.9418  0.6650  0.0176
16922SOL    HW152207   0.430   2.622   9.110 -0.4074  1.0742  0.2932
16922SOL    HW252208   0.380   2.623   9.253 -0.7588 -1.2073  0.2171
16923SOL     OW52209   4.288   0.202   4.513  0.4274 -0.4852 -0.6766
16923SOL    HW152210   4.248   0.288   4.501  1.3437 -0.2259 -2.0230
16923SOL    HW252211   4.285   0.161   4.427  1.1751 -1.2884 -0.3431
16924SOL     OW52212   6.819   3.879  10.937  0.5202 -0.0100  0.2480
16924SOL    HW152213   6.895   3.822  10.951  0.2581 -0.4456 -0.1102
16924SOL    HW252214   6.777   3.884  11.023  1.1332  0.4940  0.5264
16925SOL     OW52215   4.545   3.552   4.317  0.0434  0.1036 -0.0746
16925SOL    HW152216   4.586   3.583   4.398 -0.9051 -0.1432  0.5234
16925SOL    HW252217   4.563   3.458   4.316 -0.9929 -0.1225  0.5163
16926SOL     OW52218   6.893   4.840   8.148  0.0716 -0.1536  0.1457
16926SOL    HW152219   6.842   4.760   8.156  0.6138 -0.6601 -1.1332
16926SOL    HW252220   6.829   4.909   8.132 -0.2012 -1.0041 -2.9246
16927SOL     OW52221   7.592   2.931   5.491 -0.0075  0.2012  0.0825
16927SOL    HW152222   7.567   2.994   5.423  0.0399  2.3412  1.9364
16927SOL    HW252223   7.527   2.861   5.484 -0.4600  0.7360 -1.6209
16928SOL     OW52224   4.345   0.398   9.764  0.0493  0.6055 -0.0403
16928SOL    HW152225   4.309   0.485   9.747 -1.9351  0.7412  3.6978
16928SOL    HW252226   4.367   0.399   9.857  1.0269 -2.5811 -0.1085
16929SOL     OW52227   4.722   6.829  11.985  0.0129  0.2374 -0.5965
16929SOL    HW152228   4.748   6.754  11.933 -0.3329  0.5781 -1.2670
16929SOL    HW252229   4.697   6.792  12.070 -0.3666 -0.4263 -0.9888
16930SOL     OW52230   2.858   1.825   6.207  0.3141 -0.1998 -0.1943
16930SOL    HW152231   2.911   1.899   6.234  0.7830  0.6718 -3.1031
16930SOL    HW252232   2.922   1.759   6.180  0.0736  0.6295 -3.1461
16931SOL     OW52233   1.578   1.294   5.292  0.4234  0.3165  0.5144
16931SOL    HW152234   1.509   1.236   5.259  0.8513 -0.2356  0.5597
16931SOL    HW252235   1.540   1.336   5.369  0.5404 -0.9174  1.2794
16932SOL     OW52236   6.013   5.429   9.378 -0.1658  0.0739  0.3077
16932SOL    HW152237   6.000   5.429   9.283  2.6328  2.9257 -0.2514
16932SOL    HW252238   5.994   5.339   9.405 -0.5281 -0.9894 -3.0202
16933SOL     OW52239   4.735   1.668  11.597  0.4466  0.2280  0.3372
16933SOL    HW152240   4.664   1.612  11.629 -0.0688  0.7588  0.1237
16933SOL    HW252241   4.712   1.689  11.507  0.7611  0.5926  0.3366
16934SOL     OW52242   3.188   0.187  11.451 -0.4778 -0.1315 -0.4441
16934SOL    HW152243   3.251   0.174  11.380  1.2466  1.5738  0.6896
16934SOL    HW252244   3.141   0.267  11.427 -0.9506 -0.3807 -0.3700
16935SOL     OW52245   1.011   1.297   3.228 -0.7965  0.6259 -0.7108
16935SOL    HW152246   1.036   1.225   3.285 -2.3207 -0.8072 -1.7449
16935SOL    HW252247   0.934   1.336   3.270 -1.6024 -0.1005 -1.4568
16936SOL     OW52248   6.872   5.259  11.375  0.2883 -0.2725 -0.4707
16936SOL    HW152249   6.888   5.260  11.280  1.2209  0.3513 -0.3234
16936SOL    HW252250   6.869   5.352  11.399 -1.2457 -0.3978 -0.0831
16937SOL     OW52251   5.221   5.606   8.455  0.2380  0.4525  0.1190
16937SOL    HW152252   5.141   5.555   8.467  1.1399 -1.0257  0.1027
16937SOL    HW252253   5.252   5.622   8.544  2.2983 -2.9589  0.1567
16938SOL     OW52254   3.163   2.536   9.247 -0.5377  0.4722 -0.6347
16938SOL    HW152255   3.234   2.494   9.294  0.3489 -0.0728 -2.3708
16938SOL    HW252256   3.191   2.627   9.238 -0.0934  0.2841 -1.2164
16939SOL     OW52257   1.438   4.166   2.757  0.2805 -0.2610  0.1518
16939SOL    HW152258   1.481   4.105   2.816  0.8034 -1.2331 -1.1964
16939SOL    HW252259   1.345   4.151   2.770  0.2281  1.6808  2.9080
16940SOL     OW52260   2.857   1.464  11.717  0.4022 -0.1294  0.4078
16940SOL    HW152261   2.856   1.489  11.624 -1.6577 -1.4100  0.0194
16940SOL    HW252262   2.846   1.369  11.716 -1.1885 -0.0149  1.9504
16941SOL     OW52263   6.534   1.105   9.875  0.0056  0.3963  0.2600
16941SOL    HW152264   6.610   1.128   9.929 -0.8170  0.4227  1.4602
16941SOL    HW252265   6.499   1.189   9.846  0.3136  0.3917 -0.1351
16942SOL     OW52266   5.382   2.997  10.513 -0.1995  0.7640 -0.5387
16942SOL    HW152267   5.397   3.074  10.568 -1.9712  1.1842 -0.5873
16942SOL    HW252268   5.448   2.934  10.542 -0.7936  1.1182  1.8045
16943SOL     OW52269   6.998   1.648   2.514  0.2489  0.0616  0.0501
16943SOL    HW152270   7.034   1.562   2.538  0.7006  0.5411  1.1476
16943SOL    HW252271   7.021   1.658   2.421  0.9155 -0.6488  0.1283
16944SOL     OW52272   7.393   3.818   8.531 -0.7340 -0.3279  0.1230
16944SOL    HW152273   7.307   3.832   8.491 -0.7236  1.7459  0.7178
16944SOL    HW252274   7.455   3.851   8.465 -0.4959 -0.2962  0.3622
16945SOL     OW52275   6.413   0.662   0.536  0.1730  0.5217  0.6230
16945SOL    HW152276   6.393   0.576   0.500 -2.2928  1.3474 -0.2162
16945SOL    HW252277   6.375   0.661   0.624  0.1772  0.7348  0.6282
16946SOL     OW52278   2.826   3.270   7.614 -0.1044 -0.0207 -0.0679
16946SOL    HW152279   2.845   3.361   7.591 -3.3148  0.9659  0.7215
16946SOL    HW252280   2.762   3.276   7.685 -0.9175 -2.9052 -0.4314
16947SOL     OW52281   5.490   6.747   9.318 -0.4917  0.1969  0.7723
16947SOL    HW152282   5.533   6.777   9.398 -0.4625  1.0597  0.4429
16947SOL    HW252283   5.561   6.711   9.264 -0.6746 -1.5925  1.6314
16948SOL     OW52284   4.982   2.986  11.029  0.0392 -0.1422 -0.2218
16948SOL    HW152285   4.936   2.970  10.947 -0.9278  1.2630  0.0252
16948SOL    HW252286   4.921   2.957  11.097 -0.0883  0.7790  0.0692
16949SOL     OW52287   2.443   3.954   2.983 -0.0910  0.0872  0.3860
16949SOL    HW152288   2.524   3.997   2.953 -1.0883  1.8825  0.1301
16949SOL    HW252289   2.443   3.968   3.077 -0.6761  1.1667  0.2385
16950SOL     OW52290   1.456   7.172  12.357  0.0267  0.4700  0.2937
16950SOL    HW152291   1.505   7.107  12.307  0.0161 -1.2644  2.3649
16950SOL    HW252292   1.372   7.131  12.375 -1.3815  2.4782 -1.1928
16951SOL     OW52293   3.541   0.671   0.683  0.1013 -0.1476  0.5824
16951SOL    HW152294   3.519   0.740   0.746  1.2600 -0.6970  1.6076
16951SOL    HW252295   3.624   0.699   0.645 -0.3430 -0.0719 -0.3700
16952SOL     OW52296   1.487   4.172   6.647 -0.2673  0.3650 -0.0540
16952SOL    HW152297   1.538   4.229   6.589  0.0248  0.4121  0.2457
16952SOL    HW252298   1.451   4.231   6.713  0.1391  0.1881  0.3296
16953SOL     OW52299   0.578   0.709   0.901 -0.5508  0.3435  0.1218
16953SOL    HW152300   0.613   0.620   0.904  0.5080  0.7761  1.3676
16953SOL    HW252301   0.655   0.765   0.895 -1.2435  1.1677 -1.9460
16954SOL     OW52302   6.167   2.429  11.941 -0.3554 -0.1692  0.0154
16954SOL    HW152303   6.150   2.507  11.993  0.7773  0.6592 -0.8123
16954SOL    HW252304   6.094   2.370  11.962 -0.1077  0.2341  2.2847
16955SOL     OW52305   2.031   5.581   5.259  0.0711  0.3397 -0.0218
16955SOL    HW152306   2.062   5.565   5.348 -1.3085  0.9812  0.6072
16955SOL    HW252307   2.091   5.532   5.203  1.1998  0.2528  1.2335
16956SOL     OW52308   7.862   3.200   8.882  0.0484  0.7151 -0.5620
16956SOL    HW152309   7.788   3.227   8.828  0.6268  0.0570 -1.7164
16956SOL    HW252310   7.889   3.116   8.846 -1.1637 -1.0927  2.3787
16957SOL     OW52311   3.217   1.967   2.768 -0.1727  0.1808  0.0112
16957SOL    HW152312   3.151   1.912   2.727 -0.5658  2.0640 -2.0799
16957SOL    HW252313   3.301   1.927   2.743 -0.4747 -0.0413 -0.6774
16958SOL     OW52314   0.707   6.551   9.078  0.5539  0.0773  0.1908
16958SOL    HW152315   0.784   6.607   9.085  0.8726 -0.4940  1.5970
16958SOL    HW252316   0.738   6.463   9.101 -0.2549 -0.4028 -0.4607
16959SOL     OW52317   3.684   1.130   1.319  0.8244  0.2393 -0.0870
16959SOL    HW152318   3.693   1.095   1.230 -1.9095 -1.8930  0.3307
16959SOL    HW252319   3.607   1.187   1.314  2.2538  2.3029  0.3933
16960SOL     OW52320   4.125   5.459  11.062 -0.0018  0.1000 -0.3056
16960SOL    HW152321   4.071   5.442  11.139  0.7194 -0.0908  0.1692
16960SOL    HW252322   4.212   5.479  11.098  0.5352 -0.7376 -1.0824
16961SOL     OW52323   6.526   3.724   9.676 -0.1283 -0.1352 -0.3583
16961SOL    HW152324   6.501   3.699   9.765 -0.4754 -1.6440 -0.8521
16961SOL    HW252325   6.527   3.819   9.677 -1.1555 -0.1184  0.9822
16962SOL     OW52326   2.634   6.550   7.961  0.0649  0.0661  0.1122
16962SOL    HW152327   2.702   6.488   7.935  0.4984  0.8376 -0.6635
16962SOL    HW252328   2.571   6.498   8.010  0.3869 -0.9885 -0.5700
16963SOL     OW52329   4.978   6.853   3.981 -0.5243 -0.4136 -0.2658
16963SOL    HW152330   5.035   6.811   3.917  1.2179  0.8684  0.3752
16963SOL    HW252331   5.021   6.936   4.001 -4.0140  2.0417 -1.8413
16964SOL     OW52332   0.756   1.159  12.283 -0.1942 -0.0564  0.3591
16964SOL    HW152333   0.762   1.248  12.316  1.3927  0.3649 -0.9603
16964SOL    HW252334   0.663   1.135  12.294 -0.4886  1.4517  1.4170
16965SOL     OW52335   4.325   7.116   5.395  0.0192 -0.1547 -0.1692
16965SOL    HW152336   4.263   7.049   5.425  0.2427 -0.5426 -0.5589
16965SOL    HW252337   4.334   7.175   5.470  0.6261 -1.1436  0.5642
16966SOL     OW52338   2.374   3.989   4.176  0.3852 -0.6060 -0.4265
16966SOL    HW152339   2.281   3.979   4.156  0.6871 -1.0293 -1.7397
16966SOL    HW252340   2.416   3.993   4.090  1.4349  1.1973  0.1150
16967SOL     OW52341   4.312   6.694   7.735  0.2825  0.5044  0.5317
16967SOL    HW152342   4.255   6.721   7.663  1.2099 -0.3365 -0.5528
16967SOL    HW252343   4.278   6.608   7.761 -2.5543  2.3573  3.8573
16968SOL     OW52344   6.415   3.282   0.148 -0.1753  0.7913 -0.0860
16968SOL    HW152345   6.496   3.246   0.113 -0.1803  0.0698  0.6136
16968SOL    HW252346   6.426   3.377   0.141  0.3857  0.6847 -0.7367
16969SOL     OW52347   3.215   6.443   0.013  0.0595  0.4025 -0.4971
16969SOL    HW152348   3.232   6.534  -0.014 -0.9560  0.5582 -0.6649
16969SOL    HW252349   3.282   6.392  -0.031  0.7255  1.0931 -0.2951
16970SOL     OW52350   0.648   3.078   3.240 -0.1333 -0.3687  0.0177
16970SOL    HW152351   0.714   3.091   3.172 -1.3447 -0.9276 -1.3370
16970SOL    HW252352   0.698   3.058   3.319  1.3203 -0.1106 -0.7987
16971SOL     OW52353   7.368   6.836   9.633 -0.2287 -0.5531 -0.6113
16971SOL    HW152354   7.417   6.788   9.699 -0.3408 -0.0048 -0.1153
16971SOL    HW252355   7.383   6.928   9.655  0.3106 -0.3464 -1.7814
16972SOL     OW52356   1.732   2.041   0.993 -0.0675  0.5286  0.0868
16972SOL    HW152357   1.822   2.010   0.995 -0.2968 -0.2322 -0.9346
16972SOL    HW252358   1.731   2.116   1.052  1.0439  0.0489  0.7437
16973SOL     OW52359   0.510   1.273  12.025  0.4130 -0.0364 -0.2139
16973SOL    HW152360   0.592   1.242  11.987  0.6534  0.2184  0.0964
16973SOL    HW252361   0.461   1.307  11.950  1.1839  1.1311 -0.2159
16974SOL     OW52362   2.267   5.598  12.231 -0.2768  0.7275 -0.3001
16974SOL    HW152363   2.185   5.641  12.207 -0.7604 -0.4695 -0.8671
16974SOL    HW252364   2.335   5.661  12.207 -0.9185  0.8705 -1.8746
16975SOL     OW52365   6.545   3.823   1.287  0.4475 -0.5815 -0.3556
16975SOL    HW152366   6.555   3.843   1.380 -2.0445 -1.1148  0.1079
16975SOL    HW252367   6.601   3.886   1.242 -0.0905  1.2602  1.4109
16976SOL     OW52368   6.180   5.768   3.879 -0.5252  0.4355  0.0357
16976SOL    HW152369   6.179   5.702   3.949  0.8504 -1.3440 -1.5161
16976SOL    HW252370   6.092   5.764   3.843 -0.8125  0.3159  0.7212
16977SOL     OW52371   0.951   2.034   6.759  0.0087  0.3823 -0.2230
16977SOL    HW152372   0.877   2.072   6.711 -1.8305 -1.3381  1.1158
16977SOL    HW252373   0.947   1.940   6.739  1.9915  0.2747 -0.2886
16978SOL     OW52374   7.863   4.825   6.630 -0.5871 -0.2405  0.2018
16978SOL    HW152375   7.773   4.857   6.640 -1.1644 -1.3020 -1.2038
16978SOL    HW252376   7.902   4.884   6.565  0.6041  1.7803  2.6012
16979SOL     OW52377   4.184   1.070   2.239 -0.5058 -0.3001  0.3663
16979SOL    HW152378   4.239   1.001   2.277  0.3054  0.8074  1.2686
16979SOL    HW252379   4.199   1.146   2.294 -0.4639  0.9587 -1.3109
16980SOL     OW52380   4.001   4.724   4.957 -0.1713 -0.2571 -0.1286
16980SOL    HW152381   4.022   4.636   4.989  1.4097 -0.4042 -1.4603
16980SOL    HW252382   3.905   4.725   4.951 -0.2852 -1.4535  1.0466
16981SOL     OW52383   6.743   4.551   4.080 -0.1032 -0.1429 -0.1649
16981SOL    HW152384   6.798   4.516   4.010 -2.4404 -0.5800 -1.9217
16981SOL    HW252385   6.762   4.644   4.082 -0.1140 -0.0963 -1.5476
16982SOL     OW52386   7.933   5.609   6.343 -0.9353 -0.1859 -0.6773
16982SOL    HW152387   7.874   5.564   6.404  0.6949 -0.3384  0.8891
16982SOL    HW252388   8.019   5.573   6.363 -0.3813 -0.7404 -3.5898
16983SOL     OW52389   2.143   1.373   5.326  0.4014  1.0498  0.2955
16983SOL    HW152390   2.229   1.376   5.368  0.2438  0.8622  0.6379
16983SOL    HW252391   2.089   1.433   5.378  0.1718  0.7170  0.4474
16984SOL     OW52392   7.085   2.942   7.701  0.3450 -0.0365  0.6797
16984SOL    HW152393   7.047   2.859   7.672 -1.0096 -0.0956  2.4672
16984SOL    HW252394   7.170   2.946   7.657  0.7178 -2.6659  1.0229
16985SOL     OW52395   4.795   2.646   4.505  0.1850 -0.2053  0.4195
16985SOL    HW152396   4.740   2.571   4.528  0.2207  0.2027  1.9596
16985SOL    HW252397   4.879   2.629   4.547  0.9560 -0.3410 -1.0903
16986SOL     OW52398   2.701   0.430   0.569 -0.5145  0.8497  0.3233
16986SOL    HW152399   2.773   0.488   0.545 -0.4472  0.8694  0.5675
16986SOL    HW252400   2.699   0.363   0.500 -0.1975  0.7929  0.3683
16987SOL     OW52401   7.037   5.521   9.954  0.4702  0.0295  0.1254
16987SOL    HW152402   6.963   5.518   9.893  0.5676 -0.1991  0.0142
16987SOL    HW252403   7.027   5.442  10.007  1.6136 -0.9719 -1.0577
16988SOL     OW52404   2.525   4.478   8.472  0.5786 -0.0614 -0.6441
16988SOL    HW152405   2.538   4.438   8.386  0.2253 -1.9853  0.1373
16988SOL    HW252406   2.544   4.408   8.534  2.4196  1.7023  0.9422
16989SOL     OW52407   4.580   0.328   4.566  0.1852 -0.0218  0.1592
16989SOL    HW152408   4.503   0.367   4.607  1.4493  1.2368  1.4600
16989SOL    HW252409   4.593   0.246   4.614  1.8999  1.6280  2.8121
16990SOL     OW52410   7.907   1.728   8.679  0.0962  0.0990  0.7015
16990SOL    HW152411   7.967   1.670   8.631 -1.2995 -0.8289 -0.0085
16990SOL    HW252412   7.871   1.672   8.747  1.3787  1.1655  2.3401
16991SOL     OW52413   0.412   1.318   8.727  0.2064 -0.1578  0.1328
16991SOL    HW152414   0.444   1.407   8.709 -0.4724  0.0785  0.0827
16991SOL    HW252415   0.492   1.267   8.744  0.5202  0.8362  1.8468
16992SOL     OW52416   2.389   7.564   6.783  0.0206 -0.0162  0.1201
16992SOL    HW152417   2.387   7.469   6.778 -0.2830 -0.0306  0.4635
16992SOL    HW252418   2.387   7.594   6.692 -1.9763 -0.3011  0.0308
16993SOL     OW52419   7.717   2.181   6.959 -0.3088 -0.3456  0.2175
16993SOL    HW152420   7.679   2.108   6.910 -0.5037 -0.6315  0.7883
16993SOL    HW252421   7.667   2.184   7.041  1.0876 -0.9308  1.1215
16994SOL     OW52422   5.353   3.169   8.757  0.0481 -0.0068  0.2668
16994SOL    HW152423   5.299   3.221   8.698 -0.9864 -0.4482  0.8072
16994SOL    HW252424   5.438   3.162   8.712 -0.3906  0.5315 -0.6750
16995SOL     OW52425   3.179   1.112  11.840 -0.0020  0.0602 -0.2559
16995SOL    HW152426   3.195   1.121  11.934  0.5968  0.8498 -0.4256
16995SOL    HW252427   3.232   1.036  11.814 -0.8476 -0.7008  0.1922
16996SOL     OW52428   7.341   4.098  10.424 -0.1873 -0.0890  0.3272
16996SOL    HW152429   7.303   4.012  10.439 -0.2880 -0.1369 -0.1898
16996SOL    HW252430   7.421   4.081  10.375 -0.4925  0.1498 -0.2616
16997SOL     OW52431   0.181   4.776  11.648 -0.2483  0.8613 -0.1108
16997SOL    HW152432   0.121   4.703  11.635  0.0198  0.7132 -0.5251
16997SOL    HW252433   0.124   4.852  11.658 -0.4954  0.8286 -1.1917
16998SOL     OW52434   0.521   3.020   7.178 -0.0415  0.4257  0.0249
16998SOL    HW152435   0.496   2.935   7.213 -0.0865  0.5499  0.3029
16998SOL    HW252436   0.507   3.081   7.251  2.4773  0.3054  0.6904
16999SOL     OW52437   0.916   7.095   2.596 -0.1207 -0.4144  0.0303
16999SOL    HW152438   0.883   7.116   2.509 -0.9278  1.2294  0.7006
16999SOL    HW252439   0.905   7.175   2.646  0.9193 -1.1346  1.4915
17000SOL     OW52440   0.317   3.743   0.965 -0.5288  0.1357  0.3352
17000SOL    HW152441   0.256   3.804   1.007 -2.2009 -0.7377 -0.7028
17000SOL    HW252442   0.304   3.757   0.871  1.0569  0.0630  0.0805
17001SOL     OW52443   7.782   7.362   8.899 -0.9582  0.0688 -0.0899
17001SOL    HW152444   7.873   7.377   8.874 -0.8428 -0.1253  0.2063
17001SOL    HW252445   7.731   7.391   8.824 -0.5320 -2.4518 -1.4549
17002SOL     OW52446   0.623   5.434   1.622 -0.1779  0.2345 -0.4803
17002SOL    HW152447   0.671   5.358   1.590  0.0988 -1.3666  3.1992
17002SOL    HW252448   0.535   5.424   1.586 -0.3734 -2.3609  0.4892
17003SOL     OW52449   1.271   7.206   1.225 -0.2712 -0.4773 -0.2091
17003SOL    HW152450   1.344   7.266   1.206 -0.4179  0.5009  1.9499
17003SOL    HW252451   1.275   7.141   1.155  2.4853 -0.2770 -0.3680
17004SOL     OW52452   4.387   1.257   0.902  0.2924 -0.3958 -0.3590
17004SOL    HW152453   4.312   1.275   0.958 -0.0344 -0.4110 -0.7875
17004SOL    HW252454   4.396   1.161   0.903 -0.6177 -0.5215 -1.4746
17005SOL     OW52455   2.759   3.243   1.771  0.0766  0.0115  0.6109
17005SOL    HW152456   2.845   3.258   1.731 -0.6576  0.2671 -0.9355
17005SOL    HW252457   2.776   3.249   1.865  1.6761  0.4769  0.3362
17006SOL     OW52458   7.427   5.079   8.944 -0.3940 -0.4626  0.0282
17006SOL    HW152459   7.458   4.988   8.944 -0.4243 -0.5166  2.0412
17006SOL    HW252460   7.408   5.098   9.036 -1.0813  1.3625 -0.4451
17007SOL     OW52461   2.239   7.269   2.789  0.3038  0.0591  0.2041
17007SOL    HW152462   2.261   7.251   2.880  0.1404 -1.1133  0.0292
17007SOL    HW252463   2.310   7.229   2.738  2.2354  3.4981 -0.1788
17008SOL     OW52464   1.709   3.751   3.515  0.6203 -0.1620 -0.1804
17008SOL    HW152465   1.776   3.712   3.571  0.3696 -0.5158 -0.1276
17008SOL    HW252466   1.752   3.760   3.430  1.1657  0.8495  0.1900
17009SOL     OW52467   5.199   7.777   0.212 -0.0419  0.1499  0.0615
17009SOL    HW152468   5.105   7.791   0.196 -0.0540  1.3432  1.0400
17009SOL    HW252469   5.242   7.829   0.144 -0.0368 -1.7911 -1.5131
17010SOL     OW52470   1.043   2.320  11.912  0.5723  0.2587  0.3183
17010SOL    HW152471   1.007   2.402  11.876  1.1242  0.4147  0.1196
17010SOL    HW252472   1.070   2.271  11.835  0.5220  0.0161  0.4561
17011SOL     OW52473   0.631   7.564   3.649  0.5437  0.8110  0.0445
17011SOL    HW152474   0.625   7.577   3.744  0.0143 -1.8692  0.4644
17011SOL    HW252475   0.724   7.577   3.629  0.7965  0.7042  1.0787
17012SOL     OW52476   4.492   1.234   3.297  0.0772 -0.2123  0.7286
17012SOL    HW152477   4.497   1.166   3.229  0.0826 -1.3258  1.7923
17012SOL    HW252478   4.581   1.268   3.303  0.1905 -0.4628  0.5135
17013SOL     OW52479   7.267   5.474  10.323  0.2351  0.3075 -0.1921
17013SOL    HW152480   7.338   5.430  10.370  0.3542 -0.2086 -0.8358
17013SOL    HW252481   7.251   5.554  10.372  2.0432  1.0016 -0.6810
17014SOL     OW52482   1.835   3.020   8.761 -0.1462 -0.0704  0.3036
17014SOL    HW152483   1.785   3.059   8.832  0.4204 -0.1532  0.7539
17014SOL    HW252484   1.914   2.986   8.803 -0.1720 -0.8258 -0.2365
17015SOL     OW52485   7.120   2.250   3.234 -0.4113  0.0722  0.0781
17015SOL    HW152486   7.154   2.206   3.312 -3.0236 -0.7491  0.8521
17015SOL    HW252487   7.063   2.185   3.193  3.4591 -0.9492 -4.7018
17016SOL     OW52488   2.201   7.623   3.481 -0.0657 -0.1502 -0.2139
17016SOL    HW152489   2.276   7.607   3.423 -0.7682  0.3999 -1.3034
17016SOL    HW252490   2.197   7.718   3.490  2.3819 -0.1953  3.9637
17017SOL     OW52491   4.410   5.206   4.877 -0.2892  0.2233  0.1236
17017SOL    HW152492   4.494   5.217   4.923  0.4069  1.0725 -1.2813
17017SOL    HW252493   4.357   5.280   4.907  0.8670  1.9437 -1.8369
17018SOL     OW52494   5.672   3.688   5.543  0.1211 -0.4458  0.7373
17018SOL    HW152495   5.730   3.615   5.565 -0.8779 -1.8702 -1.0515
17018SOL    HW252496   5.691   3.707   5.451 -1.4513 -0.2266  0.4251
17019SOL     OW52497   7.863   4.883   1.096  0.3226 -0.0302  0.1498
17019SOL    HW152498   7.806   4.892   1.172 -1.8693  0.8035 -1.4713
17019SOL    HW252499   7.899   4.970   1.081 -0.6435  0.2432 -0.7295
17020SOL     OW52500   7.772   7.893   0.246  0.3229 -0.0718 -0.1933
17020SOL    HW152501   7.863   7.919   0.229  1.1985 -1.1608  2.3576
17020SOL    HW252502   7.769   7.876   0.340 -1.5472 -3.6951 -0.7286
17021SOL     OW52503   7.298   1.977   0.259  0.2048  0.3021 -0.3509
17021SOL    HW152504   7.321   2.056   0.308  1.6819  0.0139 -0.5373
17021SOL    HW252505   7.374   1.920   0.268 -1.5964 -1.9784  1.4701
17022SOL     OW52506   1.739   6.713   5.501 -0.4727 -0.2523  0.3356
17022SOL    HW152507   1.678   6.683   5.569  0.3286  2.0808  2.2309
17022SOL    HW252508   1.824   6.681   5.529 -0.4015 -1.0161 -0.7188
17023SOL     OW52509   6.532   6.408   4.053  0.2352  0.2829  0.2757
17023SOL    HW152510   6.503   6.384   4.141  0.8069 -1.0232  0.1267
17023SOL    HW252511   6.515   6.331   3.999 -1.3927  1.5371 -1.1147
17024SOL     OW52512   4.765   4.002   2.467  0.2809  0.2106 -0.0054
17024SOL    HW152513   4.770   3.972   2.558 -1.5735  2.3962  0.9317
17024SOL    HW252514   4.673   3.991   2.443  0.3928  1.2335 -1.0050
17025SOL     OW52515   7.287   6.987   6.785  0.4246  0.6566  0.3582
17025SOL    HW152516   7.244   7.007   6.702 -1.1147  2.6673  1.5417
17025SOL    HW252517   7.377   6.966   6.761 -0.4574 -0.8685 -1.9695
17026SOL     OW52518   2.069   6.081   0.243 -0.7225 -0.5167  0.0409
17026SOL    HW152519   2.109   6.149   0.298 -0.7838  0.3647 -0.9864
17026SOL    HW252520   1.979   6.110   0.230 -0.6268 -0.5569 -0.7597
17027SOL     OW52521   3.771   0.069   6.563 -0.4956 -0.3165  0.2580
17027SOL    HW152522   3.783   0.154   6.521 -0.4630  0.2223  1.3203
17027SOL    HW252523   3.677   0.052   6.557 -0.5858  0.0713  0.5646
17028SOL     OW52524   1.949   3.459   5.187 -0.3821  0.0463 -0.1503
17028SOL    HW152525   2.037   3.422   5.179  0.1544  1.1333  0.5273
17028SOL    HW252526   1.948   3.533   5.126 -1.6745 -1.4098 -2.0136
17029SOL     OW52527   1.578   6.149   9.992  0.2762 -0.2642 -0.3270
17029SOL    HW152528   1.624   6.232   9.998 -0.8593  0.2837  1.9991
17029SOL    HW252529   1.641   6.084  10.025 -0.2222  0.3605  2.0379
17030SOL     OW52530   6.872   1.172   8.667  0.4650 -0.0200 -0.0012
17030SOL    HW152531   6.817   1.196   8.593  0.0967  0.6992  0.4906
17030SOL    HW252532   6.904   1.084   8.646 -0.6984 -0.3699 -0.3884
17031SOL     OW52533   4.900   7.375   5.006 -0.2727  0.0611  0.1378
17031SOL    HW152534   4.836   7.317   4.964 -1.3259  2.5917 -2.0156
17031SOL    HW252535   4.847   7.429   5.065  0.1353  0.9598 -0.3018
17032SOL     OW52536   3.105   3.446   4.111  0.4512  0.3286  0.3045
17032SOL    HW152537   3.056   3.406   4.039  1.0164 -2.0829  1.1912
17032SOL    HW252538   3.047   3.516   4.143 -1.7457 -1.4003  0.3108
17033SOL     OW52539   7.673   0.285   8.615  0.4443  0.4960 -0.2280
17033SOL    HW152540   7.766   0.305   8.622  0.2322  1.6536 -0.4587
17033SOL    HW252541   7.665   0.195   8.645  1.6579  0.3365 -0.3424
17034SOL     OW52542   4.011   1.453   6.002  0.0580  0.2827 -0.1512
17034SOL    HW152543   4.016   1.404   5.921  0.1185 -0.5289  0.3317
17034SOL    HW252544   3.956   1.400   6.059  0.6284  0.4674  0.5897
17035SOL     OW52545   2.275   5.471   5.996 -0.1036 -0.5591  0.1934
17035SOL    HW152546   2.337   5.537   6.027 -0.6774 -0.3693  0.9426
17035SOL    HW252547   2.309   5.388   6.030  1.4908 -0.9101 -2.0343
17036SOL     OW52548   4.845   6.104   5.733 -0.0416 -0.4833  0.0524
17036SOL    HW152549   4.805   6.146   5.657  0.0116 -0.0694  0.2454
17036SOL    HW252550   4.802   6.019   5.740  0.3997 -0.7869 -0.8140
17037SOL     OW52551   1.886   5.919  12.104 -0.4166 -0.6866 -1.3149
17037SOL    HW152552   1.849   5.974  12.173  0.1432 -1.7399 -0.1302
17037SOL    HW252553   1.838   5.943  12.025 -2.0879 -0.4708 -0.2703
17038SOL     OW52554   4.213   0.207   3.403 -0.0973  0.7199  0.3612
17038SOL    HW152555   4.208   0.301   3.385  0.5857  0.8677  0.9170
17038SOL    HW252556   4.300   0.193   3.439  0.0415 -0.2352 -0.2877
17039SOL     OW52557   7.453   2.653  12.384  0.5862 -0.5023  0.0259
17039SOL    HW152558   7.420   2.564  12.389 -0.4520 -0.3296 -2.4286
17039SOL    HW252559   7.385   2.707  12.424 -0.9518 -0.4402 -2.4653
17040SOL     OW52560   7.599   4.213   4.632  0.4021  0.1296  0.9652
17040SOL    HW152561   7.625   4.305   4.632 -1.3459  0.6661  0.6883
17040SOL    HW252562   7.675   4.166   4.597  0.9835  1.5693  0.2210
17041SOL     OW52563   4.189   6.896  11.740 -0.1032  0.0816  0.6565
17041SOL    HW152564   4.245   6.884  11.817  0.3619  0.6811  0.4142
17041SOL    HW252565   4.183   6.809  11.701  1.7809  0.2409 -0.0783
17042SOL     OW52566   7.283   1.983   4.427 -0.0471 -0.0794  0.1163
17042SOL    HW152567   7.259   2.012   4.339  2.1301  0.7215 -0.2564
17042SOL    HW252568   7.202   1.992   4.477 -1.0153  0.6627 -1.4814
17043SOL     OW52569   0.429   3.109   0.511  0.2808  0.5752 -0.9500
17043SOL    HW152570   0.508   3.163   0.517 -0.1484  1.3139 -1.8569
17043SOL    HW252571   0.450   3.042   0.446  0.5069  0.1519 -0.4516
17044SOL     OW52572   3.855   6.416   3.342  0.4264  0.2622 -0.2505
17044SOL    HW152573   3.934   6.452   3.301  0.6836  2.6221  2.0883
17044SOL    HW252574   3.881   6.398   3.432 -1.5436  0.5294  0.4186
17045SOL     OW52575   6.918   1.056  11.186 -0.2593  0.5060  0.6816
17045SOL    HW152576   6.945   1.009  11.108 -1.3268  2.4311 -0.9560
17045SOL    HW252577   6.827   1.031  11.199 -0.7252  1.7460  0.0107
17046SOL     OW52578   7.525   3.607   0.795  0.2980 -0.5463 -0.2829
17046SOL    HW152579   7.552   3.598   0.704  0.3235 -1.0222 -0.2309
17046SOL    HW252580   7.500   3.518   0.822  1.7017 -0.7057  0.6140
17047SOL     OW52581   0.077   3.596   4.383 -0.4949 -0.3258  0.4298
17047SOL    HW152582   0.137   3.521   4.382  0.7100  0.6285 -0.3236
17047SOL    HW252583   0.132   3.672   4.363 -1.5928  0.8538  1.6290
17048SOL     OW52584   7.691   2.621   6.753 -0.0206  0.0251 -0.4766
17048SOL    HW152585   7.702   2.716   6.751 -1.4356  0.2027 -0.3409
17048SOL    HW252586   7.768   2.587   6.707 -0.0258  1.2792 -1.4515
17049SOL     OW52587   2.628   0.324  12.126  0.3460 -0.1918  0.0343
17049SOL    HW152588   2.723   0.327  12.123  0.3851 -1.5070 -0.9703
17049SOL    HW252589   2.606   0.233  12.106 -1.1153 -0.0126  0.6888
17050SOL     OW52590   1.579   4.904  12.046 -0.4517 -0.0431 -0.0322
17050SOL    HW152591   1.633   4.983  12.045  0.3072 -0.5396  0.4831
17050SOL    HW252592   1.574   4.877  11.954  1.5614 -0.8902  0.0511
17051SOL     OW52593   0.934   5.420   9.917 -0.0129  0.2163 -0.2757
17051SOL    HW152594   0.980   5.482   9.860  1.6244 -0.1114  0.6400
17051SOL    HW252595   1.000   5.355   9.941 -0.5490  0.5078  2.2237
17052SOL     OW52596   0.334   2.658  11.004 -0.2265  0.0774 -0.2157
17052SOL    HW152597   0.252   2.655  11.052 -0.3319 -1.3319 -0.4324
17052SOL    HW252598   0.342   2.748  10.975 -0.2287  0.9471  2.2820
17053SOL     OW52599   5.009   1.855   2.922  0.1317  0.4507  0.2988
17053SOL    HW152600   4.952   1.789   2.882  0.4890  0.2532  0.1068
17053SOL    HW252601   5.007   1.929   2.861 -1.0725  1.0262  1.0136
17054SOL     OW52602   6.226   2.036   9.277  0.1534 -0.1533  0.3010
17054SOL    HW152603   6.187   1.999   9.198  0.3950 -0.7339  0.4541
17054SOL    HW252604   6.166   2.107   9.301 -0.6117 -0.7848  0.3121
17055SOL     OW52605   3.619   5.288   5.581  0.1020 -0.2067 -0.3271
17055SOL    HW152606   3.550   5.343   5.619  1.4596  1.3422  0.0114
17055SOL    HW252607   3.637   5.329   5.496 -1.2189 -2.2046 -1.6390
17056SOL     OW52608   7.714   1.066   7.762 -0.8470  0.5344 -0.5332
17056SOL    HW152609   7.674   1.061   7.850 -0.0804 -1.1275 -0.2452
17056SOL    HW252610   7.750   0.978   7.747 -0.0473  1.0968 -2.0924
17057SOL     OW52611   6.942   3.044   9.709  0.2222  0.2647  0.4628
17057SOL    HW152612   6.967   2.989   9.635 -0.4096 -0.7217  0.9568
17057SOL    HW252613   6.870   3.098   9.676 -2.3816 -2.4805  1.1643
17058SOL     OW52614   6.167   6.047  10.775  0.1543  0.6552  0.0962
17058SOL    HW152615   6.101   5.979  10.763 -1.0226  1.7288  0.3037
17058SOL    HW252616   6.136   6.120  10.721 -0.1194  2.0482  2.0312
17059SOL     OW52617   7.330   2.147   3.879 -0.4718  0.3823 -0.1114
17059SOL    HW152618   7.291   2.143   3.967 -1.4961 -0.4591 -0.5839
17059SOL    HW252619   7.412   2.098   3.887 -0.4546  0.4943  0.4330
17060SOL     OW52620   6.773   0.382  10.401  0.0896 -0.1056 -0.1644
17060SOL    HW152621   6.806   0.354  10.486 -0.5702 -0.7566 -0.1100
17060SOL    HW252622   6.726   0.463  10.419  0.0184 -0.1997  0.0754
17061SOL     OW52623   5.468   4.004   8.988  0.6800 -0.1178  0.0864
17061SOL    HW152624   5.473   4.024   8.895 -0.0039 -1.0387 -0.1602
17061SOL    HW252625   5.541   3.945   9.004  1.6311  1.1192  0.4413
17062SOL     OW52626   6.198   0.900  11.393  0.4428 -0.4197 -0.4023
17062SOL    HW152627   6.164   0.906  11.483 -1.6399  0.4307 -1.1839
17062SOL    HW252628   6.216   0.991  11.369 -0.9520 -0.3964 -1.4951
17063SOL     OW52629   7.278   5.140  10.194 -0.2843  0.4704  0.1502
17063SOL    HW152630   7.224   5.163  10.270  1.5582  1.6994  1.1563
17063SOL    HW252631   7.354   5.198  10.199  2.2241 -2.5188 -0.0157
17064SOL     OW52632   1.968   7.903  10.489  0.0765  0.3778  0.0298
17064SOL    HW152633   1.877   7.880  10.474  0.0374  0.2862  0.3896
17064SOL    HW252634   1.988   7.967  10.421 -0.9770  2.2177  1.3559
17065SOL     OW52635   7.852   5.590   5.302  0.1878 -0.5245 -0.1089
17065SOL    HW152636   7.861   5.685   5.311 -1.3556 -0.1104 -2.1086
17065SOL    HW252637   7.774   5.569   5.353  0.5051 -0.7172  0.2978
17066SOL     OW52638   4.890   7.455   6.920 -0.2059 -0.9010  0.3582
17066SOL    HW152639   4.805   7.474   6.961 -0.5026 -0.4515 -0.4392
17066SOL    HW252640   4.954   7.485   6.984 -0.6621 -0.0011  0.4133
17067SOL     OW52641   7.477   6.889   8.581  0.4583 -0.2183 -0.2601
17067SOL    HW152642   7.409   6.821   8.579 -1.7166  1.8222  0.3835
17067SOL    HW252643   7.474   6.928   8.493  0.4754  0.1773 -0.0843
17068SOL     OW52644   1.075   2.768  11.000  0.4143 -0.8310  0.2586
17068SOL    HW152645   1.098   2.785  11.092 -1.3471  0.6663  0.4751
17068SOL    HW252646   0.989   2.727  11.004 -0.4491  0.7869 -0.7426
17069SOL     OW52647   1.570   1.658   3.183 -0.1293 -0.4305 -0.2629
17069SOL    HW152648   1.551   1.732   3.125  1.4284  0.3723  0.2005
17069SOL    HW252649   1.537   1.685   3.268  0.8631 -0.0526  0.0102
17070SOL     OW52650   2.663   3.971  11.833  0.1877 -0.5698 -0.3122
17070SOL    HW152651   2.653   4.033  11.761 -1.0280  0.2834  0.5685
17070SOL    HW252652   2.758   3.970  11.849  0.4026 -0.2115 -1.4092
17071SOL     OW52653   6.549   4.744   0.416  0.1064  0.1224 -0.3668
17071SOL    HW152654   6.577   4.653   0.415  1.1183  0.4099  0.2361
17071SOL    HW252655   6.631   4.794   0.424 -0.3893  1.1042 -1.1995
17072SOL     OW52656   0.414   2.097  10.438 -0.0085  0.0824  0.2296
17072SOL    HW152657   0.408   2.010  10.398  0.7861 -0.5762  1.4810
17072SOL    HW252658   0.380   2.157  10.371 -0.9550 -1.2252 -0.4980
17073SOL     OW52659   7.183   7.871   1.579 -0.0095 -0.9389  0.5971
17073SOL    HW152660   7.270   7.867   1.617 -0.6694  0.0801  2.3306
17073SOL    HW252661   7.134   7.803   1.624 -0.6750 -0.0456  1.2653
17074SOL     OW52662   4.203   7.503   9.984  0.8929 -0.2222  0.0130
17074SOL    HW152663   4.241   7.591   9.985 -0.8207  0.5631  1.3398
17074SOL    HW252664   4.133   7.508   9.919  0.7167 -0.5733  0.1761
17075SOL     OW52665   3.046   6.358   4.019  0.0643  0.5247 -0.5955
17075SOL    HW152666   3.074   6.272   3.989  1.6897  0.9408 -0.4208
17075SOL    HW252667   2.976   6.384   3.960 -1.6380 -1.5849  0.3555
17076SOL     OW52668   6.868   0.436   9.179 -0.6455  0.1638  0.2837
17076SOL    HW152669   6.886   0.530   9.182 -2.6837  0.6602 -0.9102
17076SOL    HW252670   6.832   0.416   9.265 -1.4402  0.7763  0.1005
17077SOL     OW52671   7.902   3.892  11.276  0.0572 -0.2513  0.5435
17077SOL    HW152672   7.924   3.897  11.183  0.9072  0.1741  0.7609
17077SOL    HW252673   7.970   3.837  11.314 -0.3524 -0.5187  0.9033
17078SOL     OW52674   6.960   7.147   5.068 -0.4529  0.2545 -0.1378
17078SOL    HW152675   6.915   7.143   5.152 -0.1863  2.9498  0.2383
17078SOL    HW252676   6.890   7.155   5.003 -0.6147  0.4457  0.0598
17079SOL     OW52677   1.790   7.462   9.295 -0.7719 -0.4713 -0.3264
17079SOL    HW152678   1.845   7.500   9.226 -0.3301  2.0707  1.2916
17079SOL    HW252679   1.849   7.454   9.370 -1.7630 -1.1108  0.4023
17080SOL     OW52680   5.057   5.782   9.702 -0.6870 -0.5582  0.6907
17080SOL    HW152681   5.050   5.849   9.634  1.9498  0.0085  0.8787
17080SOL    HW252682   5.052   5.831   9.784 -1.5096 -0.9619  0.8939
17081SOL     OW52683   4.078   4.048   3.406  0.3533 -0.6303  0.1584
17081SOL    HW152684   4.005   4.104   3.380 -0.3354 -0.7733  1.6678
17081SOL    HW252685   4.069   4.041   3.501  1.8236 -1.3768  0.2589
17082SOL     OW52686   7.518   7.813   2.406  0.6435 -0.5543  0.1002
17082SOL    HW152687   7.449   7.757   2.442  0.4939 -0.5426 -0.1659
17082SOL    HW252688   7.500   7.900   2.443  2.6167 -1.2227  2.9515
17083SOL     OW52689   1.542   7.374   8.587  0.1906  0.3318 -0.2516
17083SOL    HW152690   1.556   7.327   8.670 -2.1402  0.9419  0.5742
17083SOL    HW252691   1.565   7.465   8.608 -0.4365  0.4926 -0.2391
17084SOL     OW52692   2.375   2.099   3.305  0.1525 -0.2096 -1.0585
17084SOL    HW152693   2.446   2.045   3.268 -0.0080 -1.5147  0.4228
17084SOL    HW252694   2.386   2.090   3.399 -1.4167  0.3428 -0.8014
17085SOL     OW52695   3.944   7.402   7.704 -0.0705 -0.0066 -0.2189
17085SOL    HW152696   3.903   7.342   7.766  0.1543  1.1075  1.0536
17085SOL    HW252697   4.020   7.354   7.671 -1.4249 -1.4653 -1.3698
17086SOL     OW52698   5.754   1.024  10.363 -0.5817 -0.3415 -0.2723
17086SOL    HW152699   5.705   1.087  10.415 -0.1069 -0.0275 -0.2038
17086SOL    HW252700   5.846   1.044  10.379 -0.3608 -2.3001  1.3260
17087SOL     OW52701   7.480   4.724  10.767  0.4697 -0.8192 -0.4430
17087SOL    HW152702   7.418   4.717  10.694  0.7792  0.1766 -0.8204
17087SOL    HW252703   7.556   4.769  10.729  0.3216  0.4319  0.6697
17088SOL     OW52704   6.979   4.698   2.778  0.2342 -0.5142 -0.6455
17088SOL    HW152705   7.031   4.648   2.715 -0.4192 -2.3308  0.1983
17088SOL    HW252706   7.019   4.680   2.863 -0.7578 -0.6223 -0.1825
17089SOL     OW52707   2.545   0.988   1.610  0.2873 -0.2608  0.6528
17089SOL    HW152708   2.522   1.030   1.528 -1.2710 -1.5656  0.3676
17089SOL    HW252709   2.548   1.059   1.674  1.6998  0.7976 -0.5219
17090SOL     OW52710   1.935   1.816  10.758  0.2599  0.1496 -0.1317
17090SOL    HW152711   2.013   1.792  10.808 -0.5377 -0.2860  0.9311
17090SOL    HW252712   1.970   1.849  10.675  1.5518 -1.6852 -0.4053
17091SOL     OW52713   4.126   4.432   2.590  0.3391  0.0672 -0.1070
17091SOL    HW152714   4.187   4.484   2.538  1.6283  0.7334  1.9198
17091SOL    HW252715   4.040   4.470   2.574  1.0402  1.8152  0.0712
17092SOL     OW52716   5.569   6.929   2.248 -0.9979 -0.4288 -0.2793
17092SOL    HW152717   5.619   6.861   2.204  1.2752  1.2391 -0.4534
17092SOL    HW252718   5.478   6.907   2.231 -0.3011 -2.5439 -1.6260
17093SOL     OW52719   6.005   0.891  12.115  0.2414  0.2279 -0.1834
17093SOL    HW152720   6.052   0.902  12.197 -0.5606 -2.6541  0.7948
17093SOL    HW252721   5.998   0.796  12.104 -1.6587  0.5258 -2.4246
17094SOL     OW52722   2.890   1.072   9.926  0.2085 -0.2695  0.1763
17094SOL    HW152723   2.838   0.993   9.937  0.1945 -0.0284  2.3003
17094SOL    HW252724   2.977   1.048   9.958 -0.1194  0.8699  2.0606
17095SOL     OW52725   3.047   7.565  11.715  0.6455 -0.3700 -0.0344
17095SOL    HW152726   3.115   7.500  11.731  1.3498 -0.0212 -1.4905
17095SOL    HW252727   2.966   7.522  11.743  1.2667 -1.3466  0.3130
17096SOL     OW52728   3.454   3.078   3.646  0.1120 -0.2721  0.2422
17096SOL    HW152729   3.404   3.150   3.686  1.5481  0.5639  0.6145
17096SOL    HW252730   3.439   3.088   3.552  0.6870  0.8711  0.2416
17097SOL     OW52731   4.965   6.725   6.605  0.0394 -0.0844  0.3440
17097SOL    HW152732   4.984   6.819   6.612  0.5249 -0.1683  0.1544
17097SOL    HW252733   4.999   6.700   6.519 -1.1117 -0.1986 -0.0984
17098SOL     OW52734   3.887   3.435   0.710 -0.1798  0.2458 -0.3561
17098SOL    HW152735   3.909   3.417   0.619 -0.0412  1.6326 -0.6202
17098SOL    HW252736   3.800   3.474   0.706  1.4102  4.2919 -0.4280
17099SOL     OW52737   6.789   0.771   3.510 -0.1690 -0.2637  0.4562
17099SOL    HW152738   6.747   0.845   3.554 -0.5889  0.0901 -0.5199
17099SOL    HW252739   6.723   0.739   3.449 -0.1112 -1.6606  1.0888
17100SOL     OW52740   4.683   5.575   2.578 -0.4926 -0.1718 -0.1158
17100SOL    HW152741   4.615   5.621   2.528 -0.0109  0.1371 -0.4999
17100SOL    HW252742   4.758   5.635   2.577 -0.8868  0.4175  2.1307
17101SOL     OW52743   2.707   3.404   5.723 -0.1275  0.0319 -0.5496
17101SOL    HW152744   2.701   3.325   5.776  0.2609  1.0089  0.9986
17101SOL    HW252745   2.621   3.445   5.730  0.6611  1.4850  1.5239
17102SOL     OW52746   2.100   6.063   8.323 -0.4163 -0.4059  0.3950
17102SOL    HW152747   2.015   6.045   8.363 -1.2390 -0.2702 -1.2123
17102SOL    HW252748   2.160   6.003   8.368 -1.7589 -2.0364  0.1240
17103SOL     OW52749   4.076   1.161   9.465 -0.2184  0.6884  0.1957
17103SOL    HW152750   4.101   1.233   9.523 -0.6593  0.7449  0.3155
17103SOL    HW252751   4.154   1.145   9.412  0.7198 -0.3477  1.7905
17104SOL     OW52752   6.469   3.363   9.346  0.2047  0.5402  0.5091
17104SOL    HW152753   6.415   3.323   9.277  2.6099  0.6968 -1.6111
17104SOL    HW252754   6.422   3.442   9.370 -0.7826  0.4153 -0.8720
17105SOL     OW52755   7.226   3.368   8.475 -0.3976 -0.9065 -0.3960
17105SOL    HW152756   7.250   3.410   8.392 -0.9168 -0.7356 -0.4610
17105SOL    HW252757   7.310   3.339   8.512  0.1741  1.3997  0.2990
17106SOL     OW52758   4.309   1.216   6.440 -0.1991 -0.2367 -0.1850
17106SOL    HW152759   4.232   1.217   6.383  0.7387  1.2197 -1.4954
17106SOL    HW252760   4.375   1.266   6.392  1.1078 -0.2128  1.5558
17107SOL     OW52761   7.464   4.501   8.462 -0.0644  0.0444 -0.1381
17107SOL    HW152762   7.415   4.490   8.544  0.9945 -1.6239  0.3306
17107SOL    HW252763   7.554   4.521   8.490  0.1382  0.2833 -0.9200
17108SOL     OW52764   4.072   1.418   2.761  0.8978  0.0132  0.0936
17108SOL    HW152765   4.149   1.469   2.737 -0.2311  1.0054 -1.6410
17108SOL    HW252766   4.106   1.330   2.779  2.3918  0.3199 -1.0724
17109SOL     OW52767   5.032   5.802   2.921  0.4305  0.3951 -0.1026
17109SOL    HW152768   5.066   5.812   2.832 -2.9173 -0.0915 -1.5474
17109SOL    HW252769   4.987   5.884   2.939  1.1352  0.5161  1.2273
17110SOL     OW52770   3.972   2.485   4.590  0.4035 -0.1016  0.6026
17110SOL    HW152771   3.912   2.412   4.576  1.1271 -0.6830  0.4373
17110SOL    HW252772   3.956   2.544   4.516 -0.7537  0.3260  1.1695
17111SOL     OW52773   6.580   6.398   5.869 -0.2430 -0.0111  0.2544
17111SOL    HW152774   6.530   6.480   5.864 -1.1517 -0.5772 -0.0680
17111SOL    HW252775   6.539   6.340   5.805 -0.6892 -1.3000  1.6508
17112SOL     OW52776   6.845   6.315  10.021  0.0014 -0.2448  1.0410
17112SOL    HW152777   6.812   6.231  10.054  0.0578 -0.4034  0.6963
17112SOL    HW252778   6.767   6.365   9.999 -0.0548  0.0553  1.8800
17113SOL     OW52779   6.754   5.073   6.354 -0.1460  0.7044  0.0196
17113SOL    HW152780   6.782   5.162   6.332 -2.9431  1.2727 -1.9023
17113SOL    HW252781   6.691   5.084   6.425 -0.0514  0.1851  0.1904
17114SOL     OW52782   4.239   4.955   4.143 -0.5687 -0.3513  0.8126
17114SOL    HW152783   4.234   4.928   4.234  0.1794 -2.1880  0.3433
17114SOL    HW252784   4.327   4.992   4.133 -0.6611 -0.1226  0.8370
17115SOL     OW52785   1.156   4.815   6.371 -0.3341 -0.1258 -0.5109
17115SOL    HW152786   1.232   4.758   6.387  0.7980  1.2479 -0.7403
17115SOL    HW252787   1.117   4.780   6.291  1.1377  0.1717 -1.4059
17116SOL     OW52788   6.799   1.097   5.502 -0.5403 -0.2742 -0.2586
17116SOL    HW152789   6.717   1.100   5.552 -0.1869 -1.3424  0.4246
17116SOL    HW252790   6.772   1.087   5.411 -1.1750  0.0894 -0.1184
17117SOL     OW52791   1.077   6.822   1.226 -0.4699 -0.1629  0.1893
17117SOL    HW152792   1.120   6.789   1.147  0.0137  0.8288  0.0291
17117SOL    HW252793   1.055   6.743   1.275 -2.5451 -0.9463 -1.8054
17118SOL     OW52794   5.637   0.834   5.522  0.1806  0.2926 -0.3231
17118SOL    HW152795   5.684   0.897   5.575  0.2603 -0.4673  0.5288
17118SOL    HW252796   5.704   0.793   5.467  0.3050  0.1448 -0.0595
17119SOL     OW52797   2.615   7.340   6.077 -0.1323 -0.4971 -0.6076
17119SOL    HW152798   2.530   7.368   6.043  0.4152  2.1832 -0.0040
17119SOL    HW252799   2.678   7.376   6.015  0.6400 -0.4020  0.2167
17120SOL     OW52800   0.159   4.787   8.102  0.2445 -0.2598  0.3992
17120SOL    HW152801   0.199   4.850   8.162 -0.9992  1.6785 -0.7252
17120SOL    HW252802   0.073   4.768   8.140  0.4027 -0.8960  0.4547
17121SOL     OW52803   1.676   2.628   1.864 -0.2719  0.6878  0.7390
17121SOL    HW152804   1.721   2.551   1.829 -2.6538 -0.5411  0.1181
17121SOL    HW252805   1.628   2.663   1.789 -1.2550  1.2150  1.5930
17122SOL     OW52806   1.142   3.934   5.599  0.2969 -0.5769 -0.1154
17122SOL    HW152807   1.072   3.988   5.636 -0.6201 -1.3002 -0.7423
17122SOL    HW252808   1.161   3.974   5.514  3.3585  1.9188  1.5305
17123SOL     OW52809   3.897   1.261   8.048  0.9070  0.3778  0.5865
17123SOL    HW152810   3.947   1.187   8.080 -0.3113 -0.3847  0.7960
17123SOL    HW252811   3.807   1.242   8.074 -0.1054 -0.0109 -2.7200
17124SOL     OW52812   1.347   7.808   2.646 -0.0193 -0.0996 -0.2799
17124SOL    HW152813   1.300   7.891   2.654  1.4641  0.6703  1.2555
17124SOL    HW252814   1.287   7.743   2.682 -1.3067  0.2275 -1.7583
17125SOL     OW52815   2.626   4.486   6.297 -0.2369 -0.1655  0.1805
17125SOL    HW152816   2.689   4.480   6.224 -0.6990 -0.8355 -0.1775
17125SOL    HW252817   2.575   4.565   6.278  0.4183  0.3181  0.4131
17126SOL     OW52818   1.342   4.527   4.476 -0.2414 -0.0066 -0.0870
17126SOL    HW152819   1.365   4.447   4.431 -0.7623  0.0762 -0.5030
17126SOL    HW252820   1.262   4.557   4.433 -0.9020 -0.0719  1.0574
17127SOL     OW52821   1.093   1.287   6.326  0.0959 -0.8616  0.0111
17127SOL    HW152822   1.087   1.205   6.376  1.6308 -1.6721 -1.0428
17127SOL    HW252823   1.156   1.340   6.375 -1.3990  0.0120  1.0600
17128SOL     OW52824   4.060   2.346  10.141  0.2044  0.3223  0.2292
17128SOL    HW152825   4.135   2.360  10.199  0.2236  0.6121  0.1356
17128SOL    HW252826   4.051   2.428  10.093 -0.4566  0.4448  0.5601
17129SOL     OW52827   1.414   1.890  10.147  0.1323 -0.3539 -0.2793
17129SOL    HW152828   1.469   1.871  10.223 -1.2821 -1.2189  0.5849
17129SOL    HW252829   1.475   1.919  10.079  1.4065  0.9453  1.3311
17130SOL     OW52830   6.732   7.159  11.516  0.2021  0.0778  0.5666
17130SOL    HW152831   6.712   7.087  11.575 -3.0526 -0.0778 -0.4830
17130SOL    HW252832   6.678   7.232  11.548 -0.5760  0.3931 -1.3164
17131SOL     OW52833   7.880   1.175   0.130 -0.2251  0.0666 -0.1010
17131SOL    HW152834   7.971   1.200   0.143 -0.3299  0.5486 -0.2764
17131SOL    HW252835   7.862   1.196   0.039 -0.2780 -0.7971 -0.3026
17132SOL     OW52836   5.304   6.912   1.402 -0.2179 -0.0519  0.1143
17132SOL    HW152837   5.369   6.941   1.466 -0.4559 -0.9986  0.8088
17132SOL    HW252838   5.353   6.853   1.344 -0.3654 -0.4798  0.4191
17133SOL     OW52839   1.102   0.364   5.864  0.1268 -0.7017 -0.2229
17133SOL    HW152840   1.171   0.422   5.830 -1.0162  0.3414 -0.8123
17133SOL    HW252841   1.110   0.285   5.810 -0.1447  0.0281 -1.3548
17134SOL     OW52842   2.813   6.820   8.851 -0.4522 -0.1112 -0.2884
17134SOL    HW152843   2.801   6.808   8.945 -2.3770  1.1151 -0.3101
17134SOL    HW252844   2.792   6.736   8.813 -2.2114  0.0570  0.2396
17135SOL     OW52845   5.910   1.912   4.247  0.2583  0.7287 -0.1599
17135SOL    HW152846   5.875   1.829   4.213  0.3797  1.0382 -1.0579
17135SOL    HW252847   5.840   1.975   4.232 -0.8109  0.3794  2.6565
17136SOL     OW52848   1.378   6.704   0.169 -0.1864 -0.4712  0.4862
17136SOL    HW152849   1.289   6.671   0.157  0.0434 -1.0063  0.1996
17136SOL    HW252850   1.375   6.795   0.140 -0.4206 -0.7727 -0.4863
17137SOL     OW52851   6.945   0.083   1.619  0.2146  0.7804  0.1795
17137SOL    HW152852   6.882   0.058   1.552 -1.1281  0.7350  1.4190
17137SOL    HW252853   7.025   0.036   1.595 -1.0643 -1.5834  0.2311
17138SOL     OW52854   5.986   6.041   3.267 -0.7822 -0.3376  0.1766
17138SOL    HW152855   5.972   6.131   3.237  0.8930 -0.7877 -2.2662
17138SOL    HW252856   6.044   6.003   3.202 -1.1789 -3.1286  1.3101
17139SOL     OW52857   6.495   0.318   2.541  0.6351  0.2733  0.2127
17139SOL    HW152858   6.420   0.330   2.599  1.3444  1.5591  0.9250
17139SOL    HW252859   6.459   0.322   2.452 -0.2103  0.2586  0.5541
17140SOL     OW52860   3.646   1.990   0.977  0.1153  0.1175 -0.0887
17140SOL    HW152861   3.612   1.902   0.965  1.1430 -0.8067  2.8431
17140SOL    HW252862   3.582   2.033   1.034  0.7251  0.5039  0.3132
17141SOL     OW52863   6.034   3.297   7.697 -0.3021 -0.1531  0.0347
17141SOL    HW152864   6.025   3.248   7.779  0.4420 -0.9068 -0.3157
17141SOL    HW252865   5.966   3.260   7.640  0.4696 -1.0396 -0.3391
17142SOL     OW52866   0.492   7.175   3.881 -0.4486  0.0687  0.1145
17142SOL    HW152867   0.530   7.212   3.801  1.8409 -0.1306  1.0147
17142SOL    HW252868   0.531   7.227   3.952 -0.3858 -1.3879  1.1979
17143SOL     OW52869   1.153   2.979   5.847 -0.2626 -0.2473 -0.4068
17143SOL    HW152870   1.070   3.026   5.858 -0.5357 -0.5045 -1.2897
17143SOL    HW252871   1.173   2.987   5.753  0.3818 -0.7331 -0.3185
17144SOL     OW52872   7.232   7.264   7.907  0.0066  0.5194  0.5049
17144SOL    HW152873   7.233   7.345   7.855 -0.6099  1.1629  1.4568
17144SOL    HW252874   7.161   7.277   7.970 -0.2238 -0.8553  0.5582
17145SOL     OW52875   7.360   4.489   8.721 -0.0657 -0.2650 -0.1652
17145SOL    HW152876   7.287   4.547   8.744  1.0940  0.8978  0.7269
17145SOL    HW252877   7.318   4.405   8.704 -1.5551  0.1593  1.0815
17146SOL     OW52878   4.989   7.191   2.067  0.5181  0.2173  0.0684
17146SOL    HW152879   4.977   7.117   2.127  0.6180  0.3071  0.2008
17146SOL    HW252880   5.025   7.152   1.988  1.2541  0.2158  0.3965
17147SOL     OW52881   0.845   0.395   2.644 -0.6806  0.5922  0.0341
17147SOL    HW152882   0.836   0.414   2.551  2.9660  3.9480  0.0625
17147SOL    HW252883   0.883   0.307   2.647  0.8057  1.0837 -1.8713
17148SOL     OW52884   4.183   1.116   4.199 -0.2237  0.1607 -1.0652
17148SOL    HW152885   4.254   1.065   4.161 -0.5241  0.0628 -1.5130
17148SOL    HW252886   4.225   1.196   4.230  0.7466 -1.4453  2.1722
17149SOL     OW52887   0.386   3.538   1.900 -0.6323  0.1161 -0.0056
17149SOL    HW152888   0.405   3.571   1.988 -0.8350  2.6597 -0.8314
17149SOL    HW252889   0.459   3.479   1.881 -0.1500  0.1556  1.5586
17150SOL     OW52890   3.683   6.830   0.173 -0.4818  0.0054  0.3082
17150SOL    HW152891   3.630   6.844   0.251 -1.8542  3.1077 -1.0194
17150SOL    HW252892   3.638   6.760   0.125 -0.7854 -0.4800  1.2821
17151SOL     OW52893   4.449   5.329  10.035  0.1204  1.0587  0.3462
17151SOL    HW152894   4.395   5.390  10.085 -0.4515  1.3875 -0.6537
17151SOL    HW252895   4.481   5.381   9.960 -0.8373 -0.0038 -0.8364
17152SOL     OW52896   6.307   3.567  11.165  0.1417  0.3269  0.5107
17152SOL    HW152897   6.370   3.629  11.128 -1.0120  1.6842  0.7306
17152SOL    HW252898   6.309   3.585  11.259  0.0434 -0.2174  0.6157
17153SOL     OW52899   1.489   6.856   8.933 -0.2403  0.3478 -0.1048
17153SOL    HW152900   1.571   6.806   8.936  0.6226  1.1598 -4.3362
17153SOL    HW252901   1.421   6.791   8.948  1.0411 -0.7231  1.4835
17154SOL     OW52902   5.396   3.718   0.938  0.5079  0.3649 -0.0226
17154SOL    HW152903   5.433   3.654   0.998 -1.8328  0.0487  1.1989
17154SOL    HW252904   5.385   3.797   0.991  0.3091  0.7319 -0.6002
17155SOL     OW52905   0.221   7.395   3.744  0.2168 -0.2666 -0.7003
17155SOL    HW152906   0.261   7.458   3.685  1.4786 -1.0887 -0.7764
17155SOL    HW252907   0.265   7.410   3.828 -1.6667  0.9963  0.1142
17156SOL     OW52908   6.635   3.694   2.871 -0.1156  0.0948  0.0498
17156SOL    HW152909   6.608   3.762   2.933  0.4411  3.5351 -3.1182
17156SOL    HW252910   6.730   3.693   2.876  0.0087  1.2661 -1.4637
17157SOL     OW52911   2.649   7.106  10.196 -0.1834  0.3917 -0.1107
17157SOL    HW152912   2.734   7.137  10.164  0.6571  1.2178  2.6026
17157SOL    HW252913   2.663   7.089  10.289 -2.7222 -0.5723  0.1863
17158SOL     OW52914   3.266   0.184   4.086 -0.6248 -0.5498 -0.3123
17158SOL    HW152915   3.307   0.235   4.016  1.7921  0.5899  1.7589
17158SOL    HW252916   3.290   0.093   4.067  0.9698 -0.1359 -0.4113
17159SOL     OW52917   0.623   4.071   3.075 -0.6873 -0.1392  0.2784
17159SOL    HW152918   0.699   4.015   3.089 -0.9447 -0.3176  1.0107
17159SOL    HW252919   0.562   4.047   3.146 -1.1728  0.4178  0.0556
17160SOL     OW52920   0.051   5.257  10.492  0.4100  0.0521 -0.3209
17160SOL    HW152921  -0.031   5.208  10.503  1.0482 -0.6314  2.1377
17160SOL    HW252922   0.042   5.332  10.551  1.1157  0.5798 -0.8707
17161SOL     OW52923   5.143   5.998   4.060 -0.1677  0.0180 -0.2726
17161SOL    HW152924   5.135   6.092   4.047 -3.1008  0.1020  1.2713
17161SOL    HW252925   5.053   5.968   4.076  0.8526 -2.7629  0.9577
17162SOL     OW52926   1.805   4.370   1.938  0.0508  0.1386 -0.0981
17162SOL    HW152927   1.880   4.428   1.928 -0.7933  1.2306 -0.3416
17162SOL    HW252928   1.835   4.285   1.907  1.4506  0.3260  0.6879
17163SOL     OW52929   1.411   0.511   9.426  0.5302 -0.8286 -0.1006
17163SOL    HW152930   1.492   0.515   9.375  0.7900 -0.0873  0.3610
17163SOL    HW252931   1.346   0.554   9.371 -0.0029 -2.9660 -1.2525
17164SOL     OW52932   3.391   1.728   0.105  0.1334 -0.1717  0.0306
17164SOL    HW152933   3.434   1.677   0.037 -0.0542  0.4307 -0.5554
17164SOL    HW252934   3.370   1.812   0.062 -1.1120 -0.2444  0.4599
17165SOL     OW52935   0.827   3.000  10.017  0.2255 -0.3737  0.3797
17165SOL    HW152936   0.778   2.935  10.067  1.2217  0.5963  2.7628
17165SOL    HW252937   0.903   3.020  10.072 -0.0921  2.8727 -0.1883
17166SOL     OW52938   1.706   0.800   0.516 -0.4658 -0.1050  0.1502
17166SOL    HW152939   1.785   0.853   0.530  0.7002 -1.4974 -0.8677
17166SOL    HW252940   1.644   0.861   0.477  0.0982  1.0184  0.9360
17167SOL     OW52941   0.042   5.216   6.248  0.0673  0.3554 -0.4255
17167SOL    HW152942   0.088   5.252   6.172 -0.5556 -0.7507 -1.3471
17167SOL    HW252943   0.098   5.240   6.323  1.4940  0.1530 -1.3784
17168SOL     OW52944   3.331   5.467   9.300  0.2553 -0.4729  0.0504
17168SOL    HW152945   3.309   5.473   9.393  0.4682 -0.5705  0.1076
17168SOL    HW252946   3.373   5.382   9.291 -0.2125 -0.6816 -0.2292
17169SOL     OW52947   0.887   2.599   4.643  0.5012  0.3099  0.1477
17169SOL    HW152948   0.907   2.508   4.665 -0.0043  0.5913  2.0133
17169SOL    HW252949   0.864   2.639   4.727 -0.0257  1.9738 -0.7372
17170SOL     OW52950   2.481   7.591   8.108 -0.2288  0.1777 -0.3850
17170SOL    HW152951   2.460   7.547   8.191 -1.2135  0.4400 -0.4828
17170SOL    HW252952   2.437   7.539   8.042 -2.7408  2.1110 -0.3681
17171SOL     OW52953   1.522   4.676   7.183 -0.1020  1.0945  0.3353
17171SOL    HW152954   1.609   4.641   7.202  0.5014  1.4252 -1.6578
17171SOL    HW252955   1.462   4.614   7.226  1.0269 -1.0108 -0.9498
17172SOL     OW52956   6.430   3.755  11.674  0.5855 -0.3220 -0.2798
17172SOL    HW152957   6.516   3.773  11.637  0.4456 -0.6413 -0.7647
17172SOL    HW252958   6.374   3.823  11.637  0.4690 -0.5762 -0.5766
17173SOL     OW52959   7.381   5.150   5.371 -0.5135 -0.2197 -0.1732
17173SOL    HW152960   7.373   5.075   5.430  1.7688 -0.0448  0.4527
17173SOL    HW252961   7.450   5.125   5.309 -0.6338  0.8601 -0.7736
17174SOL     OW52962   4.274   7.176   2.019  0.4159 -0.0595  0.1306
17174SOL    HW152963   4.367   7.168   2.040  0.7085  0.4259 -0.9280
17174SOL    HW252964   4.231   7.174   2.104  1.3334 -0.9592  0.5997
17175SOL     OW52965   1.893   7.112   5.774  0.1215 -0.2769 -0.2449
17175SOL    HW152966   1.876   7.180   5.839 -1.4851 -1.0295  0.1771
17175SOL    HW252967   1.982   7.081   5.795  0.3636  0.7810  0.3742
17176SOL     OW52968   5.363   7.651   6.980 -0.2757  0.3633  0.4134
17176SOL    HW152969   5.314   7.700   7.047 -3.6605  0.1925 -1.7031
17176SOL    HW252970   5.406   7.718   6.927 -0.8319  0.7542  0.4469
17177SOL     OW52971   3.650   6.920   5.807 -0.4595  0.1885  0.1589
17177SOL    HW152972   3.626   6.977   5.735  3.1054 -0.9797 -2.2431
17177SOL    HW252973   3.724   6.964   5.850  0.1431 -1.0123  0.4178
17178SOL     OW52974   6.811   0.040   5.746  0.2770 -0.4916 -0.4561
17178SOL    HW152975   6.900   0.023   5.716  0.7069  1.2703 -0.2667
17178SOL    HW252976   6.806   0.135   5.755 -1.5628 -0.5711 -0.2507
17179SOL     OW52977   2.658   0.119   9.905 -0.3812  0.4063 -0.0572
17179SOL    HW152978   2.696   0.049   9.852 -2.2095  0.0908 -1.0563
17179SOL    HW252979   2.725   0.188   9.906  1.0736 -0.9591  0.1722
17180SOL     OW52980   2.862   2.650   8.490 -0.1861  0.5899 -0.0033
17180SOL    HW152981   2.903   2.629   8.406 -1.0315 -0.8824 -0.0910
17180SOL    HW252982   2.916   2.719   8.527  0.8047  0.5430 -1.2947
17181SOL     OW52983   5.249   2.948   7.265 -0.8836  0.3546 -0.4991
17181SOL    HW152984   5.232   3.020   7.326  2.2506  0.9937 -0.2273
17181SOL    HW252985   5.302   2.886   7.315 -1.8856 -1.2716 -1.3481
17182SOL     OW52986   6.914   6.738   9.416 -0.2427 -0.4279 -0.6127
17182SOL    HW152987   6.900   6.768   9.326 -0.8705  1.3561  0.0274
17182SOL    HW252988   6.923   6.819   9.467 -2.8837 -1.2341  1.3745
17183SOL     OW52989   6.444   0.919   7.311  0.2775 -0.4084  0.3090
17183SOL    HW152990   6.354   0.952   7.312  0.5029  0.3369 -1.1331
17183SOL    HW252991   6.496   0.993   7.341  0.4316 -0.7920  0.9955
17184SOL     OW52992   1.960   7.327   7.946 -0.6195  0.4193  0.2080
17184SOL    HW152993   2.021   7.284   7.886  0.8169  0.4465  1.5975
17184SOL    HW252994   1.880   7.336   7.895 -0.3668 -2.0960 -0.8095
17185SOL     OW52995   1.626   6.368  10.667  0.3172  0.0231  0.2739
17185SOL    HW152996   1.591   6.374  10.579  0.7467  1.2629  0.1589
17185SOL    HW252997   1.672   6.452  10.680  1.6506 -0.7933  1.0661
17186SOL     OW52998   0.003   2.953  10.592 -0.3642 -0.1299 -0.0016
17186SOL    HW152999   0.036   2.974  10.679 -1.0585 -2.3463  0.8672
17186SOL    HW253000   0.078   2.915  10.546 -0.3230 -0.1494  0.0828
17187SOL     OW53001   3.376   1.421   9.084 -0.4540 -0.5550 -0.7788
17187SOL    HW153002   3.307   1.383   9.030  0.8653 -0.3685 -2.7135
17187SOL    HW253003   3.367   1.516   9.071  0.6853 -0.5542 -1.8448
17188SOL     OW53004   0.099   3.209   4.952 -0.1001 -0.4827  0.0766
17188SOL    HW153005   0.010   3.188   4.980 -0.4086 -0.7114 -1.0330
17188SOL    HW253006   0.144   3.124   4.947 -0.3578 -0.5769 -1.0872
17189SOL     OW53007   5.857   7.642   2.452 -0.6681 -0.7988  0.2659
17189SOL    HW153008   5.809   7.658   2.370 -0.5038 -0.1488  0.2921
17189SOL    HW253009   5.905   7.561   2.436 -0.2126 -0.3900 -0.4860
17190SOL     OW53010   6.628   3.184  11.174  0.4009 -0.2553 -0.0110
17190SOL    HW153011   6.579   3.245  11.119  1.7094  1.7270  0.8930
17190SOL    HW253012   6.565   3.155  11.240 -0.0906  0.6141 -0.0885
17191SOL     OW53013   3.140   6.697   6.019 -0.0265 -0.1283 -0.1561
17191SOL    HW153014   3.213   6.720   6.075 -0.5893  1.1095  0.1156
17191SOL    HW253015   3.133   6.602   6.025  0.2545 -0.0705  1.4518
17192SOL     OW53016   3.360   0.645  10.900 -0.0034 -0.3126 -0.1007
17192SOL    HW153017   3.303   0.694  10.959 -1.1060 -1.8061  0.1273
17192SOL    HW253018   3.359   0.695  10.819  1.2771  1.5993  0.9832
17193SOL     OW53019   0.628   6.376  10.082 -1.1035 -0.1263 -0.2457
17193SOL    HW153020   0.574   6.414  10.151 -0.8953  0.6020 -0.4716
17193SOL    HW253021   0.701   6.335  10.129 -0.0348  1.8449 -0.0612
17194SOL     OW53022   3.886   4.983  11.940 -0.1440  0.3049  0.6470
17194SOL    HW153023   3.916   5.065  11.980 -0.9952  0.8252  0.2385
17194SOL    HW253024   3.946   4.917  11.975  1.2993  1.2625  0.0901
17195SOL     OW53025   5.672   2.185  12.096  0.0865  0.0242 -0.1346
17195SOL    HW153026   5.637   2.190  12.186 -2.4323  0.9083 -1.0738
17195SOL    HW253027   5.647   2.098  12.066  0.8017 -0.2144 -0.0610
17196SOL     OW53028   4.217   6.684   8.802  0.0972 -0.9175 -0.5534
17196SOL    HW153029   4.292   6.731   8.838 -0.2808 -0.1394 -0.7473
17196SOL    HW253030   4.145   6.704   8.862 -0.4846  0.2210 -1.5837
17197SOL     OW53031   0.644   0.460   2.847  0.2209  0.5276  0.1321
17197SOL    HW153032   0.631   0.384   2.902  0.6090 -0.4977 -1.1368
17197SOL    HW253033   0.694   0.427   2.772 -2.0340  1.3769 -1.8683
17198SOL     OW53034   1.764   7.492  10.833 -0.9412 -0.2159  0.4660
17198SOL    HW153035   1.842   7.446  10.865 -2.0430 -3.0535 -0.5492
17198SOL    HW253036   1.778   7.500  10.738 -1.0685  1.0486  0.5376
17199SOL     OW53037   1.866   5.727  11.182 -0.0570 -0.0744  0.4162
17199SOL    HW153038   1.864   5.690  11.270 -0.0538  0.6592  0.7235
17199SOL    HW253039   1.774   5.729  11.155 -0.2035  1.0091  0.9561
17200SOL     OW53040   0.313   7.604   0.847  0.0213 -0.2073 -0.4196
17200SOL    HW153041   0.334   7.542   0.917 -0.6439 -1.0715 -0.9759
17200SOL    HW253042   0.229   7.575   0.813 -2.1415  3.0342  1.5883
17201SOL     OW53043   6.708   5.676   7.845  0.0332  0.0930  0.4200
17201SOL    HW153044   6.686   5.593   7.887  0.0535  0.1725  0.5873
17201SOL    HW253045   6.795   5.662   7.806 -0.7082 -0.5362 -1.0731
17202SOL     OW53046   6.461   5.390  10.354 -0.0855 -0.3261  0.5264
17202SOL    HW153047   6.552   5.422  10.349  0.1984 -0.9519  1.3472
17202SOL    HW253048   6.408   5.468  10.339  0.5974  0.3556  1.4389
17203SOL     OW53049   2.973   1.655   1.540  0.2594 -0.2395 -0.0372
17203SOL    HW153050   2.958   1.565   1.509 -1.6321  0.2809 -0.7615
17203SOL    HW253051   2.892   1.679   1.584  0.8783  0.9993  0.4791
17204SOL     OW53052   2.842   3.685  11.150 -0.1991 -0.4123  0.3758
17204SOL    HW153053   2.891   3.694  11.068  0.5005 -1.5870  0.6472
17204SOL    HW253054   2.902   3.717  11.217 -0.5438 -0.0219  0.4994
17205SOL     OW53055   0.682   2.514   2.129 -0.1069  0.0818 -0.2856
17205SOL    HW153056   0.746   2.563   2.078 -0.0360  0.4914  0.1907
17205SOL    HW253057   0.735   2.452   2.180 -0.2425 -1.0283 -1.4309
17206SOL     OW53058   2.408   0.362   9.299 -0.0789 -0.3071  0.3201
17206SOL    HW153059   2.486   0.364   9.244 -0.8937 -1.6689 -0.9449
17206SOL    HW253060   2.340   0.405   9.246 -0.4182  0.0631  1.0378
17207SOL     OW53061   5.004   1.454   8.640  0.2708  0.6797  0.3027
17207SOL    HW153062   5.066   1.465   8.712  0.9750 -0.5485 -0.0923
17207SOL    HW253063   4.927   1.505   8.667  0.5291  0.2772  1.9101
17208SOL     OW53064   6.583   5.415   7.683  0.1928  0.5936 -0.0924
17208SOL    HW153065   6.526   5.439   7.756 -0.0507  1.4043 -0.5412
17208SOL    HW253066   6.661   5.378   7.725 -0.1368  0.6179  0.5620
17209SOL     OW53067   5.260   3.519   2.403  0.6068 -0.7456 -0.3715
17209SOL    HW153068   5.253   3.520   2.308 -0.7419 -0.6288 -0.2831
17209SOL    HW253069   5.321   3.447   2.422  0.9323 -0.7244 -1.3223
17210SOL     OW53070   5.441   4.655   9.865  0.5299 -0.0196 -0.4358
17210SOL    HW153071   5.516   4.713   9.858  0.2587  0.2665 -1.0446
17210SOL    HW253072   5.394   4.684   9.943  2.0874 -1.4420  1.1139
17211SOL     OW53073   3.481   7.697   6.381 -0.3477  0.7922  0.1583
17211SOL    HW153074   3.567   7.692   6.424 -0.1869  2.5750  0.1020
17211SOL    HW253075   3.418   7.698   6.453 -0.7276 -4.2135  0.2499
17212SOL     OW53076   2.108   5.649   1.641  0.4458  0.1475  0.6872
17212SOL    HW153077   2.122   5.555   1.635 -0.7360  0.0391 -0.8758
17212SOL    HW253078   2.047   5.660   1.714 -0.1227 -0.3841  0.2948
17213SOL     OW53079   1.005   7.857  10.291 -0.0854 -0.0852 -0.6374
17213SOL    HW153080   0.909   7.864  10.287 -0.0087  1.2738 -0.3852
17213SOL    HW253081   1.036   7.947  10.288  1.1367 -0.4275  0.7012
17214SOL     OW53082   1.104   2.930  10.556  0.1867  0.2290 -0.1105
17214SOL    HW153083   1.189   2.966  10.581  0.3707  0.2702 -0.7588
17214SOL    HW253084   1.125   2.841  10.524  0.0538  0.4014 -0.6909
17215SOL     OW53085   7.508   6.076   7.951  0.4246  0.4312 -0.2499
17215SOL    HW153086   7.463   6.006   7.998  2.3739 -1.1356 -0.6374
17215SOL    HW253087   7.563   6.032   7.887  0.8026  2.3720 -1.3374
17216SOL     OW53088   7.367   5.388   1.481  0.4476  0.4159  0.0340
17216SOL    HW153089   7.316   5.307   1.478 -0.0192  0.7216 -1.4639
17216SOL    HW253090   7.409   5.387   1.567 -0.8512 -0.6082  0.7043
17217SOL     OW53091   1.277   4.700   8.396  0.1712 -0.2263 -0.2154
17217SOL    HW153092   1.293   4.606   8.389  1.6598 -0.0022 -0.3076
17217SOL    HW253093   1.197   4.708   8.448 -1.0934 -1.5662 -1.8730
17218SOL     OW53094   4.772   0.079   8.901 -0.0154  0.3064 -0.1798
17218SOL    HW153095   4.777   0.158   8.955  1.4386  0.7186 -0.8731
17218SOL    HW253096   4.696   0.031   8.935 -1.2006  2.2075 -0.0516
17219SOL     OW53097   3.345   6.118   5.126  0.3101  0.7758  0.5361
17219SOL    HW153098   3.400   6.086   5.054  0.0080 -0.8568  0.9912
17219SOL    HW253099   3.260   6.134   5.084 -0.0577 -0.8018  0.6001
17220SOL     OW53100   1.457   6.746   0.685 -0.8032  0.0457 -0.5675
17220SOL    HW153101   1.434   6.707   0.601  1.3740  0.5813 -1.4867
17220SOL    HW253102   1.545   6.782   0.671 -0.7746  0.9882  1.6656
17221SOL     OW53103   6.160   3.004  10.519  0.1144  0.3194 -0.2879
17221SOL    HW153104   6.065   2.997  10.509  0.2998 -0.1869 -2.0779
17221SOL    HW253105   6.189   2.914  10.532  0.2831  0.5737  1.2460
17222SOL     OW53106   2.933   7.179  10.153  0.5702  0.2974 -0.3354
17222SOL    HW153107   2.895   7.248  10.099 -1.7399 -0.2942  0.4166
17222SOL    HW253108   3.024   7.206  10.166 -0.3096  3.4343  0.2588
17223SOL     OW53109   3.774   1.185   5.839 -0.9429 -0.3987 -0.1619
17223SOL    HW153110   3.784   1.272   5.802 -0.3077 -1.2513 -2.1383
17223SOL    HW253111   3.854   1.170   5.889 -0.5753 -0.2361 -0.6942
17224SOL     OW53112   3.801   5.596  11.154 -0.4107 -0.0464 -0.1731
17224SOL    HW153113   3.836   5.534  11.218  1.4743 -0.6133 -1.6478
17224SOL    HW253114   3.757   5.541  11.090 -1.1592  0.4027 -0.0456
17225SOL     OW53115   7.543   6.482   7.683  0.3037 -0.7156 -0.5300
17225SOL    HW153116   7.542   6.547   7.613  0.1776 -1.4438 -1.2123
17225SOL    HW253117   7.458   6.438   7.676  0.2703 -0.7745  0.1103
17226SOL     OW53118   5.705   7.016  10.749 -0.1101 -0.4035 -0.1884
17226SOL    HW153119   5.644   7.074  10.704 -0.3441 -0.2957  0.2654
17226SOL    HW253120   5.713   7.052  10.837 -1.5877 -1.9888  0.6672
17227SOL     OW53121   7.663   5.507   0.948 -0.5481 -0.7623  0.1885
17227SOL    HW153122   7.642   5.532   0.858 -0.7427  0.1641  0.4800
17227SOL    HW253123   7.592   5.542   1.001 -0.3680 -1.1794  0.7268
17228SOL     OW53124   0.347   6.836   3.181 -0.0760  0.7917 -0.4901
17228SOL    HW153125   0.340   6.928   3.156 -1.1706  1.0196  0.5628
17228SOL    HW253126   0.257   6.804   3.180  0.4493 -0.8840 -2.9164
17229SOL     OW53127   7.217   1.869   3.864  0.8338  0.7432  0.2493
17229SOL    HW153128   7.247   1.958   3.850 -0.2605  1.1638  0.4695
17229SOL    HW253129   7.272   1.836   3.936 -0.1391  1.9823  1.6255
17230SOL     OW53130   7.303   0.698   0.535 -0.3936 -0.5071 -0.4399
17230SOL    HW153131   7.334   0.788   0.531  0.2474 -0.6589  0.7384
17230SOL    HW253132   7.256   0.692   0.618 -2.7456 -0.5674 -1.6970
17231SOL     OW53133   1.186   5.092   8.438  0.4130  0.1040  0.5354
17231SOL    HW153134   1.261   5.094   8.379 -0.1786 -1.0982 -0.2943
17231SOL    HW253135   1.146   5.179   8.430 -0.3823 -0.4023 -1.8551
17232SOL     OW53136   3.107   1.312   0.018  0.0329 -0.3154  0.3231
17232SOL    HW153137   3.107   1.216   0.008 -0.5485 -0.2159 -0.8033
17232SOL    HW253138   3.019   1.333   0.049  0.2806 -0.1687  0.9414
17233SOL     OW53139   7.848   5.957   9.057  0.4608 -0.4619  0.4448
17233SOL    HW153140   7.781   5.912   9.005  1.1536 -0.3832 -0.5512
17233SOL    HW253141   7.861   5.901   9.133  0.4554 -1.3417 -0.1860
17234SOL     OW53142   3.218   1.925  11.341 -0.2346 -0.1881  0.0658
17234SOL    HW153143   3.246   1.907  11.430  0.0225  2.8378  0.6873
17234SOL    HW253144   3.207   2.020  11.337 -1.2943 -0.3123 -2.8316
17235SOL     OW53145   5.438   6.235  12.220 -0.8389  0.3665 -0.1514
17235SOL    HW153146   5.447   6.309  12.279 -1.9487  0.7682 -0.4642
17235SOL    HW253147   5.477   6.265  12.137 -0.9176  0.4495 -0.1582
17236SOL     OW53148   5.038   2.392   5.215  0.0040  0.1999  0.1488
17236SOL    HW153149   5.002   2.479   5.195  0.4854  0.4146  0.1960
17236SOL    HW253150   5.125   2.393   5.176 -0.2822 -0.5484 -0.5322
17237SOL     OW53151   5.208   5.565   5.756  0.4390 -0.0777 -0.2879
17237SOL    HW153152   5.190   5.568   5.850  0.8343  1.0891 -0.2281
17237SOL    HW253153   5.126   5.592   5.714  0.6410  0.6544 -0.2184
17238SOL     OW53154   7.603   0.053   7.138 -0.1998  0.8296  0.0975
17238SOL    HW153155   7.564   0.017   7.217 -0.9796 -0.0358 -0.6511
17238SOL    HW253156   7.696   0.032   7.144 -0.6814 -1.8189 -0.5192
17239SOL     OW53157   7.122   3.224  11.594  0.7438 -0.3647  0.2188
17239SOL    HW153158   7.079   3.140  11.611  1.0675 -0.4952  0.4060
17239SOL    HW253159   7.056   3.276  11.549 -0.1874  0.0153  1.9346
17240SOL     OW53160   5.976   1.384   5.556 -0.0927  0.7135 -0.9290
17240SOL    HW153161   6.021   1.445   5.497 -0.1985  1.7859  0.0460
17240SOL    HW253162   6.024   1.392   5.639 -0.9987  0.5703 -0.3760
17241SOL     OW53163   7.691   3.716   0.434  0.3923  0.6603  0.1513
17241SOL    HW153164   7.650   3.777   0.496 -1.2849 -1.3355  1.1536
17241SOL    HW253165   7.639   3.725   0.354 -1.6249 -1.2452  1.1456
17242SOL     OW53166   2.903   2.741   6.171  0.1945 -0.0146  0.6441
17242SOL    HW153167   2.831   2.761   6.230 -1.0597 -2.0312 -0.0926
17242SOL    HW253168   2.977   2.722   6.229  0.0998  1.7911  1.4158
17243SOL     OW53169   2.447   4.296  11.032 -0.4525 -0.0571  0.2569
17243SOL    HW153170   2.364   4.252  11.016 -1.1693  1.5867 -0.8156
17243SOL    HW253171   2.474   4.266  11.119 -2.1636 -0.6275  0.6252
17244SOL     OW53172   0.018   4.373   1.059 -0.3159  0.5253  0.5850
17244SOL    HW153173  -0.015   4.460   1.082 -1.2566 -0.0563  1.5051
17244SOL    HW253174   0.113   4.385   1.051 -0.3901  1.5576  1.0818
17245SOL     OW53175   1.491   2.455   9.284 -0.3034  0.5857 -0.0534
17245SOL    HW153176   1.430   2.485   9.217 -0.1667  1.0021  0.0054
17245SOL    HW253177   1.466   2.505   9.362 -0.4554  0.1120  0.2018
17246SOL     OW53178   4.801   6.799  10.334  0.2666 -0.8314  0.1688
17246SOL    HW153179   4.877   6.853  10.353  1.0528 -1.4740 -1.0264
17246SOL    HW253180   4.827   6.746  10.259 -1.6645 -0.4336 -0.8510
17247SOL     OW53181   4.134   4.504   7.041  0.1721  0.0440 -0.1954
17247SOL    HW153182   4.110   4.592   7.014  0.8239  0.7736  1.4624
17247SOL    HW253183   4.218   4.487   6.998 -0.6978 -0.4381 -1.7857
17248SOL     OW53184   5.247   2.403   0.122 -0.6576 -0.3801  0.0343
17248SOL    HW153185   5.238   2.492   0.157 -0.8605 -0.3594 -0.0692
17248SOL    HW253186   5.160   2.381   0.088 -0.1828  0.0908 -1.6047
17249SOL     OW53187   3.653   0.555   5.313  0.3219 -0.0825  0.1377
17249SOL    HW153188   3.656   0.585   5.404  1.1982  2.4652 -0.6610
17249SOL    HW253189   3.666   0.460   5.319  1.1526  0.1141  2.6137
17250SOL     OW53190   1.236   0.212   4.321 -0.0455 -0.0280  0.0350
17250SOL    HW153191   1.143   0.214   4.299  0.0362  0.4852 -0.2762
17250SOL    HW253192   1.238   0.188   4.414 -0.5286  0.8810  0.2898
17251SOL     OW53193   4.026   5.451   3.694 -0.1950 -0.3289 -0.9647
17251SOL    HW153194   4.121   5.462   3.693  0.1530 -1.9855  1.8384
17251SOL    HW253195   4.012   5.374   3.749 -3.1740 -0.2400 -1.4483
17252SOL     OW53196   0.418   7.406  10.845 -0.2338  0.1063  0.2277
17252SOL    HW153197   0.361   7.461  10.899 -0.0973 -0.2106  0.6987
17252SOL    HW253198   0.359   7.366  10.782 -0.2814  1.0739 -0.3573
17253SOL     OW53199   5.445   1.528   5.912 -0.5971 -0.2622  0.0593
17253SOL    HW153200   5.433   1.623   5.921 -1.9373 -0.2596 -1.4047
17253SOL    HW253201   5.481   1.516   5.825 -0.2124 -1.0942  0.3234
17254SOL     OW53202   3.835   6.344   7.264 -0.1197 -0.4388  0.5620
17254SOL    HW153203   3.885   6.332   7.345  0.9510 -1.2145 -0.1961
17254SOL    HW253204   3.750   6.378   7.294  0.3685 -0.3819  1.9777
17255SOL     OW53205   5.903   4.397   5.659 -0.1077 -0.1301 -0.5012
17255SOL    HW153206   5.916   4.491   5.647 -0.9025  0.0682  0.1297
17255SOL    HW253207   5.824   4.377   5.609  0.7669 -0.7254 -1.7043
17256SOL     OW53208   3.237   7.159   8.432  0.0822 -0.8943  0.1712
17256SOL    HW153209   3.224   7.194   8.520 -0.8281  1.2658 -0.7661
17256SOL    HW253210   3.154   7.115   8.411 -1.2568  1.8818 -0.9500
17257SOL     OW53211   1.592   7.624  11.363  0.2014 -0.1501  0.1611
17257SOL    HW153212   1.631   7.706  11.391 -0.0369 -0.2591  0.8521
17257SOL    HW253213   1.530   7.603  11.433  0.7827 -1.2838  0.3576
17258SOL     OW53214   5.470   0.030   6.217 -0.0589 -0.1255  0.4094
17258SOL    HW153215   5.523  -0.014   6.150 -1.0423 -1.8202  0.6794
17258SOL    HW253216   5.518   0.111   6.236  0.4892  0.1755 -1.9705
17259SOL     OW53217   4.424   7.932   8.858  0.6475 -0.2016 -0.2706
17259SOL    HW153218   4.336   7.959   8.831 -0.2827 -1.5893  1.1580
17259SOL    HW253219   4.420   7.930   8.954  1.5553 -2.3009 -0.2255
17260SOL     OW53220   1.805   5.679   8.295 -0.1168 -0.0531 -0.4946
17260SOL    HW153221   1.756   5.737   8.352 -0.2082 -1.0265  0.4407
17260SOL    HW253222   1.746   5.660   8.222 -0.6047 -0.1100 -0.0826
17261SOL     OW53223   6.543   7.261   0.312 -0.0386 -0.4385 -0.4682
17261SOL    HW153224   6.477   7.204   0.272 -0.4339  0.2725 -0.8477
17261SOL    HW253225   6.612   7.268   0.246  0.4909 -1.2740 -0.0274
17262SOL     OW53226   6.121   4.084  11.418  0.0288  0.5775 -0.0396
17262SOL    HW153227   6.074   4.057  11.339  0.8132 -0.5832 -0.1342
17262SOL    HW253228   6.202   4.124  11.387  0.8566 -0.8699  0.1508
17263SOL     OW53229   6.233   0.206   3.323  0.3471 -0.0178 -0.2848
17263SOL    HW153230   6.192   0.282   3.283  0.4561  1.0262  1.4981
17263SOL    HW253231   6.327   0.217   3.307  0.5172  1.0378  1.1864
17264SOL     OW53232   3.403   1.949  10.265  0.4725  0.5129  0.1645
17264SOL    HW153233   3.399   1.970  10.358 -1.9806 -0.1832  0.2885
17264SOL    HW253234   3.444   1.863  10.261  1.9294  1.1567  0.4239
17265SOL     OW53235   5.544   0.233   1.115  0.2610 -0.6215  0.0657
17265SOL    HW153236   5.464   0.197   1.155 -0.4017  0.9171  0.2086
17265SOL    HW253237   5.514   0.311   1.068  1.6422 -0.1862 -0.1318
17266SOL     OW53238   1.974   3.641  12.224  0.5889 -0.0477  0.2378
17266SOL    HW153239   1.966   3.691  12.305 -0.3721  0.0504  0.1010
17266SOL    HW253240   1.892   3.658  12.178  0.6447 -0.9904 -0.2430
17267SOL     OW53241   1.135   6.534   6.035  0.2470  0.0924 -0.1019
17267SOL    HW153242   1.177   6.463   5.986 -1.7342 -2.8771  2.1359
17267SOL    HW253243   1.205   6.572   6.088  1.2708 -0.4992 -0.9834
17268SOL     OW53244   7.725   4.000   6.883 -0.3181  1.0390  0.0579
17268SOL    HW153245   7.805   4.052   6.888  1.2969 -1.1264 -1.4946
17268SOL    HW253246   7.659   4.060   6.847  1.1684  2.2672 -0.7289
17269SOL     OW53247   2.075   1.650   8.062 -0.5504 -0.3189  0.3185
17269SOL    HW153248   2.045   1.628   7.973 -0.4368 -1.7452  0.6147
17269SOL    HW253249   2.034   1.734   8.080  0.9647  0.9862 -1.8277
17270SOL     OW53250   7.729   5.937   6.824  0.0659 -0.5278  0.5522
17270SOL    HW153251   7.659   5.893   6.776 -1.8250  2.1772  0.6250
17270SOL    HW253252   7.710   5.918   6.916  0.9317 -1.8217  0.4879
17271SOL     OW53253   0.729   4.491   6.640 -0.1864 -0.3030  0.7753
17271SOL    HW153254   0.746   4.574   6.596  0.2402 -1.3819 -1.2089
17271SOL    HW253255   0.797   4.487   6.708  0.5179  0.4585  0.1498
17272SOL     OW53256   5.000   4.245   6.309  0.0733 -0.4365 -0.1980
17272SOL    HW153257   4.925   4.242   6.368  0.7174 -1.4160  0.6209
17272SOL    HW253258   5.074   4.270   6.365  0.5178 -0.3661 -0.8003
17273SOL     OW53259   5.560   4.739   8.902  0.1035  0.0406  0.0919
17273SOL    HW153260   5.636   4.797   8.903 -0.0392  0.2319  1.7239
17273SOL    HW253261   5.487   4.796   8.876  0.3185  0.0893 -0.4311
17274SOL     OW53262   1.919   0.761   0.229 -0.3595 -0.1009 -0.4667
17274SOL    HW153263   1.836   0.785   0.189 -1.1511 -0.9006  0.6263
17274SOL    HW253264   1.985   0.807   0.177 -1.3776 -0.5076 -2.1899
17275SOL     OW53265   2.585   6.250   5.464  0.8090 -0.6884 -0.8463
17275SOL    HW153266   2.615   6.298   5.541  1.6433 -0.8469 -1.0575
17275SOL    HW253267   2.497   6.282   5.448  0.5894 -0.7094  0.2235
17276SOL     OW53268   7.473   1.712   7.325  0.3442  0.3843  0.1969
17276SOL    HW153269   7.557   1.692   7.368 -0.6461 -0.8071  1.7021
17276SOL    HW253270   7.411   1.721   7.397 -0.8588  1.1760 -0.8952
17277SOL     OW53271   0.755   4.865   6.816 -0.2069  0.2849  0.5107
17277SOL    HW153272   0.789   4.878   6.728 -0.6564 -1.2629  0.0992
17277SOL    HW253273   0.719   4.951   6.840  1.0204  1.0658 -0.3025
17278SOL     OW53274   0.614   7.682   2.052 -0.4072  0.4910  0.5587
17278SOL    HW153275   0.667   7.605   2.075 -2.3132 -1.8468 -2.2462
17278SOL    HW253276   0.678   7.746   2.020  0.9566 -1.3019 -0.4580
17279SOL     OW53277   7.940   3.104   1.310 -0.3965 -0.1083  0.1864
17279SOL    HW153278   7.964   3.183   1.358  0.2829 -0.1617 -0.0580
17279SOL    HW253279   7.931   3.036   1.377 -0.7602  0.1226  0.3722
17280SOL     OW53280   5.345   7.087  11.398  0.6161  0.0921  0.0365
17280SOL    HW153281   5.409   7.122  11.336 -0.1165  1.3410 -0.0401
17280SOL    HW253282   5.393   7.079  11.480  1.5882 -1.5467 -0.6428
17281SOL     OW53283   7.276   3.243   9.467 -0.7406 -0.5041 -0.6299
17281SOL    HW153284   7.231   3.159   9.476  0.1886 -0.9070  0.5258
17281SOL    HW253285   7.369   3.220   9.463 -0.2324  0.5626  2.5755
17282SOL     OW53286   6.238   3.927   9.750 -0.2048  0.3115  0.1748
17282SOL    HW153287   6.305   3.991   9.727 -0.9321  0.7174 -0.9086
17282SOL    HW253288   6.197   3.962   9.829 -1.0888  1.6080 -0.8110
17283SOL     OW53289   3.800   7.718   3.822 -0.1575  0.7993 -0.3109
17283SOL    HW153290   3.868   7.773   3.861 -0.3547  1.0051 -0.2604
17283SOL    HW253291   3.727   7.722   3.883  1.1820 -2.6768  1.8072
17284SOL     OW53292   1.520   4.781   8.345 -0.2416 -0.5518 -1.0254
17284SOL    HW153293   1.434   4.753   8.376  0.3928  1.1205  2.9606
17284SOL    HW253294   1.509   4.874   8.325  0.7213 -0.1367  0.2263
17285SOL     OW53295   1.934   1.278   2.005 -0.1913 -0.3003 -0.7678
17285SOL    HW153296   1.965   1.368   2.017  0.6405 -0.2840 -2.5928
17285SOL    HW253297   2.015   1.227   1.992 -0.4112 -1.8648  2.8565
17286SOL     OW53298   7.375   2.309   3.671 -0.3001  0.3059 -0.2244
17286SOL    HW153299   7.467   2.311   3.696  0.1040 -0.7447 -1.4795
17286SOL    HW253300   7.332   2.257   3.740  0.3740 -0.6531 -0.5079
17287SOL     OW53301   3.596   1.630   5.033 -0.0927 -0.0224 -0.3417
17287SOL    HW153302   3.634   1.565   5.091 -0.8464 -0.3579 -0.2107
17287SOL    HW253303   3.562   1.579   4.958  0.8536  0.3986 -1.0757
17288SOL     OW53304   2.883   6.839   1.980 -0.1235 -0.2536  0.5962
17288SOL    HW153305   2.873   6.858   1.887 -1.1882 -2.5743  0.1733
17288SOL    HW253306   2.960   6.782   1.984 -0.7066 -1.0164  1.0001
17289SOL     OW53307   6.827   5.647   8.918  0.0320 -0.0900  0.8541
17289SOL    HW153308   6.806   5.726   8.868  2.5660  0.3931  0.4459
17289SOL    HW253309   6.817   5.576   8.855 -1.6566 -0.0841  1.0625
17290SOL     OW53310   4.296   7.775  11.228 -0.3559  0.1289  0.2251
17290SOL    HW153311   4.346   7.740  11.301 -1.0939  0.1253  0.7407
17290SOL    HW253312   4.276   7.865  11.253  1.0811  0.7952 -0.8601
17291SOL     OW53313   4.294   1.562   2.751  0.2834 -0.2256  0.5748
17291SOL    HW153314   4.371   1.522   2.710  0.1675  1.2774 -1.2394
17291SOL    HW253315   4.311   1.656   2.747 -1.4388  0.1234  0.5407
17292SOL     OW53316   1.917   3.272   2.771 -0.2375  0.5824 -0.2821
17292SOL    HW153317   1.823   3.253   2.769 -0.1368  0.1104 -0.8405
17292SOL    HW253318   1.929   3.343   2.708  0.1995 -1.4430 -2.6395
17293SOL     OW53319   5.557   1.813   2.619  0.2520  0.0801  0.1848
17293SOL    HW153320   5.563   1.718   2.619  0.9174  0.1147  0.0841
17293SOL    HW253321   5.647   1.843   2.628  0.0482  0.7028  0.2446
17294SOL     OW53322   2.838   4.097   9.141  0.0336 -0.2228  0.4902
17294SOL    HW153323   2.878   4.107   9.228 -0.7897 -2.9134  1.2652
17294SOL    HW253324   2.845   4.004   9.122  0.7338  0.3603 -2.6863
17295SOL     OW53325   4.278   7.473   3.743  0.0057 -0.2350 -0.5650
17295SOL    HW153326   4.356   7.473   3.799 -0.6064 -1.8220  0.3582
17295SOL    HW253327   4.246   7.383   3.747 -2.0186  0.4321 -0.7239
17296SOL     OW53328   1.215   1.570   6.911  0.0780  0.6115  0.5625
17296SOL    HW153329   1.201   1.478   6.931 -0.4451  0.4249 -0.5535
17296SOL    HW253330   1.305   1.587   6.938 -0.0966  0.0011  1.5555
17297SOL     OW53331   4.294   4.175   9.253  0.1297 -0.4087 -0.0766
17297SOL    HW153332   4.332   4.201   9.169 -1.9570  0.8388 -0.7288
17297SOL    HW253333   4.289   4.079   9.249  1.5680 -0.4693 -0.6535
17298SOL     OW53334   2.625   1.083   4.139 -0.0668  1.1828 -0.2417
17298SOL    HW153335   2.574   1.134   4.201 -0.5218  0.8127 -0.3064
17298SOL    HW253336   2.658   1.009   4.189 -0.2280  1.0167 -0.3777
17299SOL     OW53337   0.653   4.626  12.045 -0.4351  0.3273 -0.5126
17299SOL    HW153338   0.708   4.560  12.003  1.0849  0.2469  1.4232
17299SOL    HW253339   0.710   4.703  12.053 -0.2701  0.0352  2.1212
17300SOL     OW53340   3.356   5.954   5.856  0.0254  0.5870 -0.4738
17300SOL    HW153341   3.327   5.957   5.765 -2.6353 -2.2067  0.1212
17300SOL    HW253342   3.376   5.862   5.873 -0.1868  0.8991  1.9131
17301SOL     OW53343   4.456   7.451   1.070 -0.5481  0.2401  0.1668
17301SOL    HW153344   4.491   7.488   1.151  0.4589  2.5601 -1.1961
17301SOL    HW253345   4.398   7.519   1.036 -1.3166 -0.8771 -0.8297
17302SOL     OW53346   3.608   7.603   8.280  0.0200 -1.0063  0.7119
17302SOL    HW153347   3.683   7.608   8.340 -0.5804  0.5949  1.3920
17302SOL    HW253348   3.645   7.619   8.194  0.7960 -2.6217  0.7242
17303SOL     OW53349   2.785   1.938   0.206  0.0051  0.1622  0.8655
17303SOL    HW153350   2.833   2.005   0.254  0.3077  1.0452 -0.5997
17303SOL    HW253351   2.842   1.916   0.132  0.4771 -2.6470  1.9243
17304SOL     OW53352   4.171   0.655   1.080  0.0532 -0.7104 -0.0286
17304SOL    HW153353   4.222   0.686   1.005  1.9523  0.7621  1.7338
17304SOL    HW253354   4.082   0.684   1.063  0.7112  0.8167 -1.1131
17305SOL     OW53355   2.460   0.556   0.478 -0.4454 -0.3099 -0.5500
17305SOL    HW153356   2.534   0.506   0.512 -0.6494 -0.3002 -0.0825
17305SOL    HW253357   2.489   0.588   0.392 -0.7263 -2.2570 -1.4286
17306SOL     OW53358   6.424   5.962  11.442  0.0662  0.3471  0.6597
17306SOL    HW153359   6.434   6.055  11.425 -0.1992  0.6936  2.2700
17306SOL    HW253360   6.333   5.943  11.418 -0.0119  0.6041  0.7508
17307SOL     OW53361   6.587   5.486   5.824  0.0912  0.1705  0.2418
17307SOL    HW153362   6.563   5.568   5.868  0.3106  0.3824 -0.0283
17307SOL    HW253363   6.556   5.417   5.883  2.4883  0.4161  1.9398
17308SOL     OW53364   2.038   4.432  11.851 -0.4412 -0.6233  0.0722
17308SOL    HW153365   2.068   4.343  11.833 -2.2316 -0.9081 -1.7729
17308SOL    HW253366   2.077   4.453  11.936 -0.4153 -3.3629  0.8387
17309SOL     OW53367   6.189   4.968   7.191  0.1925 -0.3657 -0.6808
17309SOL    HW153368   6.194   4.906   7.263 -0.2438 -0.9338 -1.1273
17309SOL    HW253369   6.095   4.983   7.179  0.1761 -1.3480 -2.0124
17310SOL     OW53370   3.150   4.915   1.369 -0.3177  0.2122  0.7751
17310SOL    HW153371   3.208   4.862   1.315 -2.3007 -0.6994 -0.5937
17310SOL    HW253372   3.189   5.003   1.368  1.9165 -0.7124  1.3752
17311SOL     OW53373   3.480   6.009   8.950  0.3012  0.0048  0.6643
17311SOL    HW153374   3.418   6.040   9.016 -0.1389  0.7915 -0.0991
17311SOL    HW253375   3.523   5.935   8.991 -1.4287 -0.8261  1.0895
17312SOL     OW53376   0.643   4.834   7.225  0.3065 -0.0885 -0.4924
17312SOL    HW153377   0.699   4.803   7.155 -0.5543 -0.1094 -1.1851
17312SOL    HW253378   0.581   4.894   7.182  0.0494  0.2464  0.3158
17313SOL     OW53379   4.887   2.083  12.230 -0.3145  0.0545  0.1005
17313SOL    HW153380   4.976   2.048  12.241  0.0638  1.1428  0.6738
17313SOL    HW253381   4.831   2.017  12.270  0.4563  0.4767  1.9921
17314SOL     OW53382   3.130   4.999   6.304 -0.3912 -0.7068  0.2574
17314SOL    HW153383   3.084   5.060   6.362 -1.3006  1.1817 -2.2693
17314SOL    HW253384   3.223   5.012   6.325 -0.4948  2.1434 -0.6107
17315SOL     OW53385   0.775   5.170   7.134 -0.0906 -0.2568  0.2629
17315SOL    HW153386   0.853   5.183   7.080 -0.5932  0.4469 -0.3093
17315SOL    HW253387   0.809   5.142   7.219  0.8447  0.9214  0.3015
17316SOL     OW53388   2.041   0.387   9.956 -0.2385 -0.8257  0.2043
17316SOL    HW153389   1.946   0.389   9.970 -0.0804 -1.3270  1.4833
17316SOL    HW253390   2.057   0.459   9.895 -1.4424 -0.7883 -0.1133
17317SOL     OW53391   6.888   2.151   0.726 -0.2451  0.2782  0.1563
17317SOL    HW153392   6.890   2.143   0.631 -1.1897 -0.0986  0.1625
17317SOL    HW253393   6.796   2.141   0.750  0.2666 -2.4336  1.3354
17318SOL     OW53394   5.826   5.456   4.432 -0.3806  0.1540  0.5356
17318SOL    HW153395   5.871   5.481   4.352 -1.2241  1.3548  0.4130
17318SOL    HW253396   5.873   5.378   4.463  0.4727  0.1725 -0.6613
17319SOL     OW53397   2.224   2.890  10.806  0.1452  0.1409 -0.4058
17319SOL    HW153398   2.236   2.889  10.901  0.8773  3.0426 -0.3547
17319SOL    HW253399   2.143   2.940  10.793 -0.6963 -1.3853 -1.3230
17320SOL     OW53400   0.019   1.316   2.778 -0.0377 -0.0294  0.7503
17320SOL    HW153401   0.037   1.225   2.802 -0.6904  0.0120  1.4336
17320SOL    HW253402   0.012   1.314   2.683 -1.4594 -0.9728  0.8466
17321SOL     OW53403   3.983   2.857   4.909  0.0095  0.2688 -0.5707
17321SOL    HW153404   3.995   2.762   4.907  0.5350  0.2859  0.8109
17321SOL    HW253405   4.065   2.892   4.874  1.1195  0.2326  1.7965
17322SOL     OW53406   6.810   2.792   8.400  0.3068 -0.1045  0.2617
17322SOL    HW153407   6.894   2.825   8.368  0.8552 -4.1717 -3.4644
17322SOL    HW253408   6.746   2.823   8.335 -0.5714  0.4604  1.3761
17323SOL     OW53409   3.058   5.004   9.832  0.4103 -0.1506 -0.1056
17323SOL    HW153410   3.052   4.947   9.755  1.0851 -1.2449  0.6377
17323SOL    HW253411   3.053   4.945   9.907  2.7477  0.5382  0.6892
17324SOL     OW53412   1.161   7.246   9.930  0.8592  0.3457 -0.4710
17324SOL    HW153413   1.101   7.245   9.855 -0.4003  0.3200  0.4997
17324SOL    HW253414   1.166   7.154   9.957 -0.0286  0.5436  0.4638
17325SOL     OW53415   7.771   3.584   7.055  0.5191  0.1159 -0.4153
17325SOL    HW153416   7.711   3.657   7.070  1.2762  1.0033 -1.4985
17325SOL    HW253417   7.817   3.573   7.139 -0.5558 -0.0421  0.1724
17326SOL     OW53418   5.107   2.378   2.436  0.7162  0.4273  0.0384
17326SOL    HW153419   5.035   2.405   2.493  0.8226  0.5377  0.1205
17326SOL    HW253420   5.127   2.289   2.464  0.5668  0.3713 -0.0301
17327SOL     OW53421   3.124   7.841   7.775  0.1832  0.1870 -0.6331
17327SOL    HW153422   3.106   7.846   7.682  1.3414  0.4203 -0.8566
17327SOL    HW253423   3.110   7.930   7.807 -1.3026 -0.1143 -0.3492
17328SOL     OW53424   4.932   7.003  12.318  0.2695  0.0657  0.1017
17328SOL    HW153425   4.847   7.034  12.287 -0.8135 -2.4731  0.2294
17328SOL    HW253426   4.912   6.921  12.363  2.5792  0.4453  2.0037
17329SOL     OW53427   1.714   2.485  10.361  0.0017  0.4137 -0.5063
17329SOL    HW153428   1.800   2.452  10.334  0.4203  0.1878  1.0274
17329SOL    HW253429   1.728   2.519  10.449 -1.6889 -0.4342  0.1276
17330SOL     OW53430   7.183   4.160   2.382  0.3847 -0.0232  0.4998
17330SOL    HW153431   7.248   4.122   2.323  0.5250  0.0725  0.5904
17330SOL    HW253432   7.108   4.102   2.376  1.2085 -1.2938  1.9350
17331SOL     OW53433   7.226   4.796   0.307  0.4269  0.0478  0.1757
17331SOL    HW153434   7.150   4.823   0.256 -0.9870  0.1749  2.2365
17331SOL    HW253435   7.296   4.787   0.242 -1.1733  0.4714 -1.7137
17332SOL     OW53436   7.060   5.318   0.757  0.5454  0.0091 -0.2020
17332SOL    HW153437   6.989   5.286   0.701  1.1107 -0.0856 -0.8884
17332SOL    HW253438   7.062   5.256   0.830  1.6831 -1.6688 -1.5516
17333SOL     OW53439   6.745   1.341   9.051 -0.3752  0.2581  0.1623
17333SOL    HW153440   6.694   1.374   9.125 -0.0744 -0.7086  0.8126
17333SOL    HW253441   6.823   1.302   9.090 -0.5704 -0.9449 -0.5884
17334SOL     OW53442   6.482   6.888   5.152 -0.3509  0.6558  0.4976
17334SOL    HW153443   6.394   6.890   5.114 -0.3176  2.9816  0.3967
17334SOL    HW253444   6.540   6.897   5.076 -0.1249  1.2871  0.7443
17335SOL     OW53445   5.959   1.510   0.824  0.0140  0.1731  0.2264
17335SOL    HW153446   5.964   1.548   0.736  0.6304  0.2009  0.2650
17335SOL    HW253447   5.866   1.515   0.847 -0.2852 -0.5923 -0.7470
17336SOL     OW53448   6.435   0.284   4.661 -0.2256 -0.5259  0.5231
17336SOL    HW153449   6.507   0.273   4.723 -1.7456  0.2790  2.5403
17336SOL    HW253450   6.429   0.379   4.649 -1.9366 -0.4490  1.6834
17337SOL     OW53451   3.437   1.358   4.300 -0.1263  0.3288 -0.0832
17337SOL    HW153452   3.449   1.272   4.340 -0.6905  0.1685 -0.2478
17337SOL    HW253453   3.493   1.357   4.223  2.7697  1.4578  1.8394
17338SOL     OW53454   5.086   4.035   2.218 -0.3051  0.3060  0.2756
17338SOL    HW153455   5.040   3.952   2.211  2.1466 -1.1513  0.3225
17338SOL    HW253456   5.079   4.059   2.310  0.1143 -0.5719  0.5460
17339SOL     OW53457   0.121   6.638   4.952 -0.0782  0.0104  0.4687
17339SOL    HW153458   0.194   6.689   4.985 -0.1303  0.4601 -0.0871
17339SOL    HW253459   0.140   6.626   4.859 -0.7941  0.2958  0.2717
17340SOL     OW53460   5.327   7.553   9.630  0.2696 -0.2372  0.3165
17340SOL    HW153461   5.260   7.509   9.578 -0.6653 -0.1147  1.3828
17340SOL    HW253462   5.326   7.507   9.714  0.6664  0.5524  0.7610
17341SOL     OW53463   6.028   7.937   4.165  0.0846 -0.9006 -0.6723
17341SOL    HW153464   6.123   7.934   4.176  0.3215  1.5752 -1.5792
17341SOL    HW253465   6.014   7.913   4.073  0.0297  0.6736 -1.0943
17342SOL     OW53466   1.664   6.281   3.382  0.0244  0.3742  0.0122
17342SOL    HW153467   1.701   6.198   3.410  0.5694  0.6166  0.0316
17342SOL    HW253468   1.662   6.334   3.462  0.8858  0.8105 -0.2367
17343SOL     OW53469   5.563   7.545  10.738 -0.6018  0.0963 -0.0580
17343SOL    HW153470   5.502   7.519  10.807  2.2344 -1.1547  2.2285
17343SOL    HW253471   5.573   7.639  10.749 -0.0179 -0.1155  1.5046
17344SOL     OW53472   2.433   7.612   5.578 -0.2154 -0.0825  0.5128
17344SOL    HW153473   2.497   7.542   5.592  1.6326  1.3228 -0.4690
17344SOL    HW253474   2.477   7.692   5.606 -1.5703  0.9459 -0.1354
17345SOL     OW53475   0.273   4.261   9.849 -0.3916 -0.4463  0.7328
17345SOL    HW153476   0.290   4.341   9.800 -0.4514 -1.0499 -0.2909
17345SOL    HW253477   0.273   4.289   9.941 -0.2428  0.6887  0.4003
17346SOL     OW53478   0.918   6.756   5.789  0.3258 -0.4536  0.8768
17346SOL    HW153479   0.896   6.786   5.701 -0.7972  0.1071  1.3249
17346SOL    HW253480   1.005   6.792   5.806 -0.4721  1.5949  0.9153
17347SOL     OW53481   7.458   7.273   5.511 -0.1926  0.4542  0.4057
17347SOL    HW153482   7.409   7.333   5.567 -0.4124  1.4521 -0.8104
17347SOL    HW253483   7.507   7.330   5.452  1.8106 -0.5337  1.0288
17348SOL     OW53484   6.944   1.032   8.366  0.0271 -0.5896 -0.9131
17348SOL    HW153485   6.963   0.961   8.304 -0.1608  0.8688 -2.7304
17348SOL    HW253486   6.863   1.071   8.334  0.0825  0.4046  0.0895
17349SOL     OW53487   2.292   0.509   4.690 -0.3042 -0.3086 -0.2902
17349SOL    HW153488   2.308   0.593   4.733 -1.2843  0.7180 -1.8398
17349SOL    HW253489   2.333   0.445   4.748 -0.0231  1.1651  1.2294
17350SOL     OW53490   3.870   3.675   3.267  0.2085 -0.1887 -0.3924
17350SOL    HW153491   3.931   3.746   3.244  1.3817 -1.0825 -0.1054
17350SOL    HW253492   3.899   3.600   3.215 -1.4293 -0.3092 -1.1876
17351SOL     OW53493   5.713   4.298   7.871 -0.6684 -0.0270 -0.7556
17351SOL    HW153494   5.793   4.306   7.924  0.2283 -0.5428 -1.9836
17351SOL    HW253495   5.658   4.237   7.921 -1.0227  1.5847  0.9237
17352SOL     OW53496   5.028   2.283   4.367  0.4059  0.0681  0.2431
17352SOL    HW153497   5.114   2.247   4.390  0.3664  0.0098  0.2989
17352SOL    HW253498   4.965   2.226   4.411  0.2855 -0.7727 -0.9511
17353SOL     OW53499   1.955   4.277   7.257 -0.4582  0.4050  0.0429
17353SOL    HW153500   1.993   4.350   7.306 -0.8527  1.1612 -0.7505
17353SOL    HW253501   1.995   4.284   7.170 -0.5366 -0.2952 -0.0519
17354SOL     OW53502   5.583   0.256   4.567  0.0770  0.3260 -0.5999
17354SOL    HW153503   5.501   0.297   4.593  0.0050 -0.5610  0.6823
17354SOL    HW253504   5.636   0.327   4.532 -0.2988  1.3680  0.8828
17355SOL     OW53505   2.839   3.393  10.946  0.0463 -0.1360  0.1605
17355SOL    HW153506   2.746   3.383  10.968  0.0312 -0.6447 -0.1156
17355SOL    HW253507   2.870   3.304  10.933  1.3946 -0.3256  3.4924
17356SOL     OW53508   4.909   2.489   9.268  0.0032 -0.2775 -0.4785
17356SOL    HW153509   4.883   2.568   9.219 -0.7190 -0.0973  0.1751
17356SOL    HW253510   4.986   2.457   9.221  0.5382  1.0242 -0.5513
17357SOL     OW53511   1.805   6.558   8.101 -0.2353  0.7458 -0.0538
17357SOL    HW153512   1.712   6.547   8.083 -0.0671 -0.0972 -0.4554
17357SOL    HW253513   1.822   6.651   8.085 -0.7342  0.6460 -1.2641
17358SOL     OW53514   7.408   4.389   3.894  0.7048  0.4576  0.1250
17358SOL    HW153515   7.393   4.374   3.987  0.4275 -4.2738 -0.4616
17358SOL    HW253516   7.501   4.413   3.889  0.7031  0.8812  1.6037
17359SOL     OW53517   0.843   5.217   1.607  0.0093 -0.1075  0.0801
17359SOL    HW153518   0.915   5.279   1.590 -1.3459  1.2524 -0.9266
17359SOL    HW253519   0.849   5.152   1.537 -0.0921  0.3423 -0.3502
17360SOL     OW53520   0.169   1.686   6.498 -0.2914  0.1886 -0.4607
17360SOL    HW153521   0.246   1.742   6.492 -0.4329  0.8325  2.3588
17360SOL    HW253522   0.203   1.600   6.523 -0.4450  0.4566  0.7224
17361SOL     OW53523   0.701   0.558  10.331 -0.0936  0.3859 -0.5215
17361SOL    HW153524   0.772   0.570  10.393 -0.3117 -0.9322  0.0179
17361SOL    HW253525   0.635   0.622  10.357 -0.2353 -0.2265  0.7127
17362SOL     OW53526   7.691   5.565   7.604  0.1998  0.0590 -0.4481
17362SOL    HW153527   7.698   5.470   7.613  0.5137  0.1434  0.3478
17362SOL    HW253528   7.597   5.582   7.597  0.2191 -0.4147 -2.0323
17363SOL     OW53529   6.167   4.321   3.422  0.0500 -0.1260  0.9679
17363SOL    HW153530   6.159   4.411   3.390 -0.1638 -0.4183  0.1701
17363SOL    HW253531   6.259   4.311   3.445  0.0900  0.2756  0.9818
17364SOL     OW53532   2.931   7.113   6.488 -0.0599 -0.1514  0.3100
17364SOL    HW153533   2.982   7.071   6.418 -0.0231 -0.9291  0.7957
17364SOL    HW253534   2.866   7.166   6.441 -0.9363 -1.7360 -0.3492
17365SOL     OW53535   7.575   5.463   1.292 -0.2508 -0.0455  0.1847
17365SOL    HW153536   7.515   5.427   1.357  0.8282 -0.3489  1.0413
17365SOL    HW253537   7.658   5.417   1.307 -0.0802 -0.4351 -1.6954
17366SOL     OW53538   4.751   1.370  11.822 -0.1190  0.3488 -0.7803
17366SOL    HW153539   4.840   1.354  11.791 -0.4658  0.7536 -2.0745
17366SOL    HW253540   4.710   1.283  11.822  0.5266  0.0217  0.7300
17367SOL     OW53541   4.138   7.915  11.520  0.1594 -0.2229 -0.0607
17367SOL    HW153542   4.086   7.996  11.515 -0.4440 -0.6563 -1.3213
17367SOL    HW253543   4.224   7.940  11.485 -0.0407 -0.1339 -0.4947
17368SOL     OW53544   3.355   7.260   0.805 -0.4039 -0.0634 -0.6427
17368SOL    HW153545   3.263   7.235   0.796 -0.4962  0.2361 -0.5547
17368SOL    HW253546   3.396   7.186   0.850 -0.0089 -1.4284 -3.0983
17369SOL     OW53547   5.017   2.308   7.255 -0.0607  0.2936  0.5467
17369SOL    HW153548   5.045   2.224   7.220 -2.1195  0.2033 -1.0926
17369SOL    HW253549   5.085   2.369   7.228  0.6393 -0.5609  0.3312
17370SOL     OW53550   6.394   7.758   1.822 -0.6926 -0.1324  0.2971
17370SOL    HW153551   6.479   7.751   1.865 -0.9511 -2.5065  0.5556
17370SOL    HW253552   6.358   7.841   1.852  1.3578  0.7508  0.4541
17371SOL     OW53553   7.692   6.877   3.319 -0.9797 -0.6387  0.0449
17371SOL    HW153554   7.650   6.907   3.238 -2.1219 -0.0770  0.8094
17371SOL    HW253555   7.785   6.896   3.307 -1.2652  0.3114 -0.7690
17372SOL     OW53556   5.476   7.173   1.981 -0.2897  0.0273 -0.6630
17372SOL    HW153557   5.477   7.117   2.058  0.8147  1.2086  0.2094
17372SOL    HW253558   5.563   7.163   1.943  0.9970  3.1753  1.0805
17373SOL     OW53559   3.049   2.981   2.119  0.2154  0.3537  0.1900
17373SOL    HW153560   2.957   2.965   2.140  0.3294 -0.2340  0.2620
17373SOL    HW253561   3.059   2.949   2.030  0.3043  0.6088  0.1069
17374SOL     OW53562   7.329   1.941  11.658  0.4959 -0.6142  0.0734
17374SOL    HW153563   7.387   1.956  11.733 -0.9102  0.4242  1.0262
17374SOL    HW253564   7.273   1.867  11.685 -1.9128  1.5083  1.3641
17375SOL     OW53565   2.052   1.175   3.409 -0.3836  0.3965  0.6244
17375SOL    HW153566   2.110   1.108   3.444  0.4107  0.7530  0.0440
17375SOL    HW253567   2.095   1.258   3.430 -0.0193  0.6269 -0.9058
17376SOL     OW53568   3.850   1.717   6.588  0.0442  0.1458 -0.0006
17376SOL    HW153569   3.805   1.690   6.668  0.7079 -1.7675 -0.2171
17376SOL    HW253570   3.943   1.708   6.609  0.2273 -0.1882 -0.9088
17377SOL     OW53571   4.027   1.238   5.511 -0.0232  0.0102  0.1836
17377SOL    HW153572   4.115   1.257   5.481  0.0167 -0.9360 -0.3322
17377SOL    HW253573   3.982   1.204   5.434 -0.3473 -1.0648  0.8248
17378SOL     OW53574   2.715   1.292   6.625  0.2318  0.2250  0.0127
17378SOL    HW153575   2.682   1.241   6.551 -1.7898  1.4978 -0.0386
17378SOL    HW253576   2.644   1.352   6.647  1.1974  0.6667  2.2777
17379SOL     OW53577   4.074   7.780  10.125 -0.0113  0.0629 -0.2228
17379SOL    HW153578   4.051   7.736  10.043  0.1783 -0.5153  0.0349
17379SOL    HW253579   3.994   7.778  10.177  0.2935 -0.9332  0.2159
17380SOL     OW53580   3.321   1.734   1.925 -0.4887  0.1276 -0.4148
17380SOL    HW153581   3.319   1.829   1.911 -2.0480  0.2593  0.3360
17380SOL    HW253582   3.329   1.725   2.020 -0.5132 -0.4766 -0.4673
17381SOL     OW53583   1.789   4.806   7.305 -0.6943  0.4471  0.0530
17381SOL    HW153584   1.698   4.826   7.325 -1.0020 -2.0292  1.6132
17381SOL    HW253585   1.837   4.829   7.385 -0.4185 -0.8086  0.2674
17382SOL     OW53586   1.126   6.801   2.311  0.0701  0.0582 -0.4283
17382SOL    HW153587   1.169   6.876   2.351 -0.8645  0.3372  0.0963
17382SOL    HW253588   1.150   6.727   2.366 -0.7979  0.3581  0.3947
17383SOL     OW53589   0.588   0.306   5.357  0.8700  0.4619  0.2939
17383SOL    HW153590   0.565   0.381   5.303  3.5001  0.1246 -1.5172
17383SOL    HW253591   0.580   0.231   5.298 -1.3396 -0.7080  1.9621
17384SOL     OW53592   4.312   7.443  11.374 -0.0266  0.2061 -0.2408
17384SOL    HW153593   4.394   7.397  11.390 -0.4776 -0.4494  0.2070
17384SOL    HW253594   4.328   7.532  11.407 -0.0242 -0.3511  1.3242
17385SOL     OW53595   0.845   4.175  11.734 -0.1098  0.1020 -0.6904
17385SOL    HW153596   0.867   4.082  11.728 -1.3762 -0.2395 -0.4769
17385SOL    HW253597   0.902   4.209  11.802  1.7774 -0.0436 -2.1158
17386SOL     OW53598   1.362   5.684   3.629 -0.5092 -0.2104 -0.4307
17386SOL    HW153599   1.414   5.678   3.709 -2.1107  1.9397  0.8735
17386SOL    HW253600   1.366   5.776   3.604 -2.1701 -0.3484 -1.3511
17387SOL     OW53601   0.598   6.108   6.569  0.3253 -0.3190  0.1039
17387SOL    HW153602   0.578   6.067   6.653 -0.4143 -0.1030  0.0375
17387SOL    HW253603   0.583   6.201   6.583 -0.6072 -0.3665 -0.4902
17388SOL     OW53604   6.129   7.619   7.336  0.2226 -0.3454  0.4415
17388SOL    HW153605   6.043   7.620   7.379  0.2700 -1.0128  0.5655
17388SOL    HW253606   6.176   7.692   7.377  0.3095 -1.0381  1.6262
17389SOL     OW53607   0.433   5.011   7.472 -0.4081 -0.3553 -0.5355
17389SOL    HW153608   0.490   4.981   7.543 -1.2136  1.0040  0.7396
17389SOL    HW253609   0.413   4.931   7.422  2.4536 -0.8959 -0.9859
17390SOL     OW53610   2.796   4.366   0.066 -0.0930 -0.4110  0.3615
17390SOL    HW153611   2.855   4.422   0.016  0.9680 -2.0950 -0.3645
17390SOL    HW253612   2.716   4.418   0.076  1.3601  1.8427  1.1342
17391SOL     OW53613   4.129   2.212  11.749  0.4469 -0.5661 -0.3679
17391SOL    HW153614   4.194   2.279  11.772 -0.7058  0.2299  0.7243
17391SOL    HW253615   4.180   2.145  11.704  1.8452  0.5058 -0.4881
17392SOL     OW53616   1.184   0.783   4.947  0.0435 -0.1483 -0.6424
17392SOL    HW153617   1.183   0.752   4.857 -1.1902  0.2128 -0.7725
17392SOL    HW253618   1.159   0.707   4.999  0.8003 -0.3690 -0.5854
17393SOL     OW53619   6.252   5.913   0.936 -0.2644  0.2070 -0.7661
17393SOL    HW153620   6.179   5.873   0.888 -0.1539 -1.6264  0.4879
17393SOL    HW253621   6.327   5.856   0.917 -0.4653 -1.3105  2.3875
17394SOL     OW53622   0.483   3.232   3.089 -0.2023 -0.1425  0.4835
17394SOL    HW153623   0.536   3.176   3.147 -2.2177 -0.3718  2.2176
17394SOL    HW253624   0.485   3.187   3.005  2.8610  0.2164  0.2612
17395SOL     OW53625   6.977   0.606   2.096 -0.1162  0.4010 -0.3762
17395SOL    HW153626   6.926   0.680   2.129  0.6812  1.1649 -0.8255
17395SOL    HW253627   7.022   0.572   2.174  1.7522  2.1930 -0.5769
17396SOL     OW53628   1.963   0.301  10.961 -0.2443 -0.4662  0.0918
17396SOL    HW153629   1.930   0.298  10.872  0.4132 -1.0269 -0.1404
17396SOL    HW253630   2.001   0.214  10.976  1.9932  0.4470  0.0055
17397SOL     OW53631   4.560   2.582   3.494  0.3339  0.1212  0.0762
17397SOL    HW153632   4.612   2.524   3.549  0.5257  1.7589  1.7202
17397SOL    HW253633   4.619   2.654   3.472 -0.0863  0.0655 -1.3583
17398SOL     OW53634   1.546   6.115   8.603 -0.0468 -1.0446 -0.3865
17398SOL    HW153635   1.530   6.161   8.521  1.4927 -1.8325 -1.1705
17398SOL    HW253636   1.487   6.040   8.602  1.3113 -2.1413 -1.7211
17399SOL     OW53637   6.580   7.784   2.731  0.2048 -0.2944 -0.1202
17399SOL    HW153638   6.550   7.793   2.821 -0.5457 -1.3166 -0.2620
17399SOL    HW253639   6.616   7.870   2.710  0.9501 -0.2047  1.3474
17400SOL     OW53640   2.523   2.496  10.025  0.1895  0.0878  0.1643
17400SOL    HW153641   2.566   2.461  10.103 -0.0518  0.0572  0.2843
17400SOL    HW253642   2.442   2.534  10.058 -0.9098 -1.7142 -0.3307
17401SOL     OW53643   6.230   7.239   8.866  0.3607 -0.1732 -0.3999
17401SOL    HW153644   6.240   7.314   8.925  1.8188 -0.9440  0.3621
17401SOL    HW253645   6.165   7.269   8.802 -0.4531  1.0750  0.9360
17402SOL     OW53646   6.997   0.373  11.135 -0.6657  0.0979  0.2212
17402SOL    HW153647   7.070   0.415  11.182 -0.6894 -0.4396  0.7509
17402SOL    HW253648   6.919   0.418  11.165 -0.5507  0.7484 -0.4289
17403SOL     OW53649   6.488   5.429   4.760 -0.0180 -0.4035 -0.1730
17403SOL    HW153650   6.421   5.382   4.810  0.7854 -1.5763 -0.1804
17403SOL    HW253651   6.561   5.368   4.753  1.1149  0.8955 -0.0695
17404SOL     OW53652   2.647   6.237   8.743 -0.8166 -0.4659  0.3554
17404SOL    HW153653   2.656   6.316   8.691 -2.4569 -0.0110  0.7172
17404SOL    HW253654   2.732   6.228   8.787  0.4353 -0.5956 -1.9394
17405SOL     OW53655   6.298   4.737   7.306  0.0039  0.5261 -0.3129
17405SOL    HW153656   6.362   4.702   7.244  0.8023  1.0725  0.1912
17405SOL    HW253657   6.257   4.659   7.343  0.2373  0.1704 -0.7795
17406SOL     OW53658   6.376   6.535   2.008 -0.2337  0.4286  0.2318
17406SOL    HW153659   6.335   6.466   2.060 -0.2843 -0.7437 -1.2715
17406SOL    HW253660   6.467   6.506   1.998 -0.1451  0.7988 -0.0561
17407SOL     OW53661   4.457   7.963   6.586  0.6618 -0.1313  0.2076
17407SOL    HW153662   4.474   8.004   6.671 -0.4462 -0.5072  0.6238
17407SOL    HW253663   4.363   7.948   6.585  0.2743  1.8445 -1.9803
17408SOL     OW53664   3.172   5.646  10.345 -0.3766  0.1891  0.1654
17408SOL    HW153665   3.250   5.694  10.319  0.0539 -0.3775  0.3799
17408SOL    HW253666   3.206   5.572  10.396 -1.0218 -0.2977 -0.1008
17409SOL     OW53667   4.555   5.936   9.392 -0.2702  0.8348 -0.0889
17409SOL    HW153668   4.601   5.931   9.309 -0.0143  0.4240  0.0734
17409SOL    HW253669   4.583   6.020   9.430  0.2152  0.6636 -0.0660
17410SOL     OW53670   2.920   4.617  10.077 -0.2049  0.3734 -0.5821
17410SOL    HW153671   2.993   4.672  10.049 -0.0603  0.9477  0.8408
17410SOL    HW253672   2.958   4.529  10.086  0.3959  0.7215  0.4150
17411SOL     OW53673   7.960   3.794   6.892  0.5218 -0.1934  0.3105
17411SOL    HW153674   7.865   3.790   6.898  0.3861  2.0307  0.2189
17411SOL    HW253675   7.989   3.821   6.979  1.2529 -2.5356  0.8631
17412SOL     OW53676   2.890   4.285   4.887  0.4288  0.0529  0.0350
17412SOL    HW153677   2.879   4.237   4.968  2.3851 -1.2327 -0.4017
17412SOL    HW253678   2.833   4.240   4.824 -0.1858  0.3265  0.3851
17413SOL     OW53679   3.280   2.889   2.510  0.0823  0.0440  0.3636
17413SOL    HW153680   3.224   2.954   2.466 -0.5042 -0.9019 -0.3400
17413SOL    HW253681   3.219   2.835   2.560  0.6055  0.2650  1.2561
17414SOL     OW53682   1.892   1.656  12.274  0.1872  0.4232  0.1519
17414SOL    HW153683   1.912   1.739  12.229  1.8668  0.1398  0.3024
17414SOL    HW253684   1.964   1.598  12.250 -1.7902 -1.6067 -1.3101
17415SOL     OW53685   7.305   4.371  11.003  0.3136  0.1320 -0.0953
17415SOL    HW153686   7.388   4.349  11.045  0.2445  1.7173  0.9431
17415SOL    HW253687   7.328   4.390  10.912  1.1219  0.7484  0.2331
17416SOL     OW53688   5.554   2.239  11.596  0.2848 -0.6139  0.5014
17416SOL    HW153689   5.598   2.257  11.679 -1.0068  0.1644  1.0537
17416SOL    HW253690   5.560   2.322  11.548  0.3446 -0.8237  0.1456
17417SOL     OW53691   1.345   2.367  11.865 -0.2796 -0.3043  0.6865
17417SOL    HW153692   1.354   2.462  11.856  0.5896 -0.5051 -1.2144
17417SOL    HW253693   1.251   2.351  11.857 -0.5307  0.4393  1.8931
17418SOL     OW53694   6.712   6.814   0.181  0.1166  0.1497 -0.1008
17418SOL    HW153695   6.628   6.769   0.185 -0.1211  0.6993  1.4804
17418SOL    HW253696   6.738   6.827   0.272  1.7341  0.3432 -0.5517
17419SOL     OW53697   6.885   5.612   3.579 -0.0765  0.0859 -0.0124
17419SOL    HW153698   6.812   5.563   3.618 -0.1267  0.6628  0.6296
17419SOL    HW253699   6.938   5.640   3.653 -1.9770  4.1515  0.0647
17420SOL     OW53700   7.094   1.286   1.503  0.1535 -0.0059 -0.3498
17420SOL    HW153701   7.032   1.221   1.470 -0.4550  0.9186 -1.0573
17420SOL    HW253702   7.150   1.237   1.563 -0.0837 -1.2536 -1.1146
17421SOL     OW53703   5.336   1.448   7.089 -0.4074 -0.5046  0.3027
17421SOL    HW153704   5.320   1.359   7.121 -0.7325 -0.5314  0.0722
17421SOL    HW253705   5.272   1.502   7.136 -0.5832 -0.4760  0.0327
17422SOL     OW53706   1.507   3.845  10.145  0.0466 -0.4865  0.3981
17422SOL    HW153707   1.472   3.924  10.185 -0.6513 -1.4074  1.6732
17422SOL    HW253708   1.576   3.815  10.205  2.2780  0.6110 -1.4488
17423SOL     OW53709   0.584   6.962  11.052  0.2391  0.4012  0.0890
17423SOL    HW153710   0.502   6.937  11.095  0.6137 -0.4239  0.3494
17423SOL    HW253711   0.636   7.003  11.121  0.4949 -0.1256  0.2132
17424SOL     OW53712   3.901   2.794   6.498  0.4044  0.0317  0.3770
17424SOL    HW153713   3.909   2.739   6.576 -0.3157 -3.3743 -1.7513
17424SOL    HW253714   3.811   2.827   6.502 -0.4490 -2.0690 -0.0805
17425SOL     OW53715   1.089   4.318  12.236  0.5536  0.1567 -0.2688
17425SOL    HW153716   1.156   4.386  12.232  0.5508  0.1378 -0.6459
17425SOL    HW253717   1.130   4.241  12.198  0.6194 -0.1098  0.3301
17426SOL     OW53718   4.012   3.876   5.678 -0.5857  0.5388  0.0228
17426SOL    HW153719   4.048   3.939   5.741 -0.5169  2.2013 -1.5905
17426SOL    HW253720   3.958   3.818   5.731 -2.3145  3.1944  1.3916
17427SOL     OW53721   5.942   0.493   7.346 -0.2205  0.1303 -0.3738
17427SOL    HW153722   5.852   0.484   7.317  0.0005 -0.4322 -0.9151
17427SOL    HW253723   5.987   0.417   7.309  0.1623 -0.4004  1.1290
17428SOL     OW53724   7.209   0.758  12.023  0.3144  0.1879  0.2138
17428SOL    HW153725   7.298   0.786  12.044  0.4979 -0.5308  0.4343
17428SOL    HW253726   7.155   0.796  12.093  0.4016  0.8781 -0.0923
17429SOL     OW53727   0.124   5.270   7.261 -0.2994 -0.0497 -0.6167
17429SOL    HW153728   0.212   5.261   7.296 -0.1677  1.2651 -0.5862
17429SOL    HW253729   0.074   5.200   7.304  0.5793 -0.4270 -0.1885
17430SOL     OW53730   4.812   7.546   8.525 -0.1233  0.0965 -0.3356
17430SOL    HW153731   4.765   7.466   8.502  0.6492 -0.5137  0.1595
17430SOL    HW253732   4.886   7.549   8.464  0.4733 -0.1696  0.3556
17431SOL     OW53733   0.736   4.321   6.421  0.3170 -0.1390 -0.4986
17431SOL    HW153734   0.722   4.379   6.496 -2.9017  2.1662 -2.6478
17431SOL    HW253735   0.698   4.237   6.448 -2.6856  1.2336 -0.1463
17432SOL     OW53736   2.186   2.468  11.581 -0.0715 -0.3363 -0.3052
17432SOL    HW153737   2.200   2.512  11.498  1.7821  1.1690  0.7165
17432SOL    HW253738   2.126   2.525  11.629  0.6254 -0.0147  0.2054
17433SOL     OW53739   4.932   5.291   9.134  0.5302  0.1231  0.2646
17433SOL    HW153740   4.977   5.366   9.094  0.5451 -0.5069 -0.9696
17433SOL    HW253741   4.848   5.287   9.088  0.8396 -1.0568 -0.2319
17434SOL     OW53742   5.503   7.833   7.968  0.0459 -0.2049 -0.0064
17434SOL    HW153743   5.440   7.855   8.037  0.9638  1.3718  0.3783
17434SOL    HW253744   5.512   7.738   7.973  0.7348 -0.0674  2.6579
17435SOL     OW53745   2.454   6.666   0.131 -0.2483 -0.2962  0.5180
17435SOL    HW153746   2.432   6.751   0.093  0.3586  0.3212  1.4932
17435SOL    HW253747   2.549   6.660   0.123 -0.3616 -1.2266 -0.2117
17436SOL     OW53748   6.171   6.710   2.042 -0.3857  0.6510  0.2976
17436SOL    HW153749   6.123   6.728   1.962 -1.1638 -0.7034  0.4328
17436SOL    HW253750   6.242   6.651   2.015 -1.2247 -0.6005  0.7198
17437SOL     OW53751   4.031   1.383  10.833 -0.1361  0.2670 -0.0300
17437SOL    HW153752   3.952   1.336  10.861 -1.2012  0.3791 -2.5559
17437SOL    HW253753   4.071   1.325  10.769  1.2807  0.6996  0.4416
17438SOL     OW53754   5.973   1.508   2.970  0.1230 -0.4234 -0.3803
17438SOL    HW153755   5.993   1.529   3.061 -0.6615 -0.2814 -0.2281
17438SOL    HW253756   5.908   1.573   2.945  1.2622  0.3297 -1.4560
17439SOL     OW53757   3.870   4.871   5.600 -0.1241  0.6627 -0.0520
17439SOL    HW153758   3.818   4.810   5.548  0.1061  0.7434 -0.3782
17439SOL    HW253759   3.873   4.832   5.687  1.8932 -0.9655 -0.7691
17440SOL     OW53760   6.349   1.198   7.823  0.0471  0.7927  0.1575
17440SOL    HW153761   6.319   1.108   7.831 -0.3897  0.6904 -1.9272
17440SOL    HW253762   6.399   1.214   7.903 -0.1574 -1.1689  0.7391
17441SOL     OW53763   7.625   2.666  10.587  0.4994 -0.6384 -0.1109
17441SOL    HW153764   7.635   2.706  10.673 -0.9844  1.7428 -0.9362
17441SOL    HW253765   7.663   2.730  10.527 -2.3465 -0.1399 -1.5483
17442SOL     OW53766   7.435   4.521   3.133  0.1452  0.2555  0.1041
17442SOL    HW153767   7.368   4.537   3.199  1.0785  1.6469  0.7701
17442SOL    HW253768   7.421   4.430   3.107 -0.6152 -0.1703  1.8208
17443SOL     OW53769   4.167   2.336   0.703  0.3813  0.0631  0.6507
17443SOL    HW153770   4.104   2.354   0.633  0.7903 -1.9579 -0.3169
17443SOL    HW253771   4.170   2.417   0.754 -2.3451  0.5215  0.2454
17444SOL     OW53772   5.644   3.031  10.269 -0.2098  0.0205  0.8921
17444SOL    HW153773   5.656   2.965  10.202 -0.5818  3.0937 -2.5270
17444SOL    HW253774   5.695   3.000  10.344  3.5739 -1.8803 -2.1278
17445SOL     OW53775   0.536   1.632   9.421  0.1989 -0.0133  0.7315
17445SOL    HW153776   0.515   1.542   9.447 -1.1130  0.1813  0.4112
17445SOL    HW253777   0.552   1.677   9.503  0.0103 -0.3413  0.9545
17446SOL     OW53778   0.670   2.953   4.342  0.0967 -0.1063  0.4587
17446SOL    HW153779   0.672   3.019   4.412 -0.9884  0.1119  0.3081
17446SOL    HW253780   0.590   2.903   4.359 -0.5822  0.4240 -1.0272
17447SOL     OW53781   7.937   2.241  11.056  0.4268  0.1646  0.0561
17447SOL    HW153782   8.031   2.258  11.045  0.7960 -1.4315  0.4737
17447SOL    HW253783   7.919   2.261  11.148  0.2053  1.0466 -0.1678
17448SOL     OW53784   0.861   7.772  10.960  0.6151 -0.2907  0.2329
17448SOL    HW153785   0.837   7.729  11.042  0.4233 -1.8201 -0.5757
17448SOL    HW253786   0.934   7.830  10.983 -0.4516  0.5054  1.7502
17449SOL     OW53787   2.486   3.219   3.198  0.5286  0.5684  0.8265
17449SOL    HW153788   2.467   3.267   3.117  1.2706 -1.2852 -0.5118
17449SOL    HW253789   2.401   3.191   3.231  0.2861  0.4918  0.1399
17450SOL     OW53790   1.485   6.982  10.861  0.6037 -0.3340  0.0511
17450SOL    HW153791   1.529   7.046  10.916  1.2745 -1.6429  1.1145
17450SOL    HW253792   1.439   7.033  10.795 -2.1043  1.5067  3.0775
17451SOL     OW53793   6.366   2.079   1.223  0.0084 -0.5718 -0.2299
17451SOL    HW153794   6.382   2.110   1.134  1.0760 -1.0110 -0.2039
17451SOL    HW253795   6.416   1.998   1.230 -1.4645 -1.4798  0.2194
17452SOL     OW53796   7.676   2.193   9.360 -0.0171 -0.1835  0.5390
17452SOL    HW153797   7.767   2.181   9.330 -0.6139  0.7426 -1.9415
17452SOL    HW253798   7.646   2.104   9.379  1.0754 -0.6403  0.2740
17453SOL     OW53799   7.905   7.468  10.081 -0.5491 -0.5562 -0.4634
17453SOL    HW153800   7.922   7.417  10.160  1.0248  0.0768 -0.3447
17453SOL    HW253801   7.934   7.556  10.103  1.2580 -0.6488 -2.1571
17454SOL     OW53802   4.077   3.300   0.551 -0.7397  0.2196  0.2211
17454SOL    HW153803   4.086   3.205   0.557 -2.3046  0.1171  1.6607
17454SOL    HW253804   4.167   3.332   0.558  0.0851 -1.1856 -2.5864
17455SOL     OW53805   2.848   5.439   6.541  0.3583  0.8156  0.0846
17455SOL    HW153806   2.938   5.446   6.571  0.2318  0.4824  0.5612
17455SOL    HW253807   2.809   5.524   6.561  0.2283  0.5428  1.0617
17456SOL     OW53808   6.471   7.255   0.609 -0.2809 -0.2193 -0.6014
17456SOL    HW153809   6.536   7.282   0.545  0.1367 -2.0213 -0.9906
17456SOL    HW253810   6.503   7.171   0.642  0.1307  1.1216  2.8452
17457SOL     OW53811   1.734   4.041   8.173  0.2897  0.3169 -0.6200
17457SOL    HW153812   1.781   4.123   8.188  0.9793 -0.1795 -0.0032
17457SOL    HW253813   1.677   4.032   8.250 -0.2575  0.5344 -0.9968
17458SOL     OW53814   7.219   3.492   1.804 -0.1021  0.6290  0.4456
17458SOL    HW153815   7.146   3.476   1.864 -1.1893  2.4646 -0.2911
17458SOL    HW253816   7.195   3.446   1.724  0.9060 -1.0408  1.0505
17459SOL     OW53817   1.351   2.392   3.108 -0.1914 -0.5853  0.3306
17459SOL    HW153818   1.337   2.443   3.028 -1.7843 -1.9898 -0.3285
17459SOL    HW253819   1.266   2.353   3.127  0.1570 -0.3121  2.7318
17460SOL     OW53820   1.386   1.791   3.405  0.2248  0.1764 -0.1936
17460SOL    HW153821   1.320   1.857   3.382  0.1223 -0.0417 -0.5365
17460SOL    HW253822   1.393   1.796   3.500  0.4322  0.8840 -0.2455
17461SOL     OW53823   6.584   4.695   0.026  0.2167  0.4831 -0.2112
17461SOL    HW153824   6.645   4.669   0.095  0.7682 -0.6631 -1.0905
17461SOL    HW253825   6.529   4.617   0.013  1.1064  0.1096 -2.0758
17462SOL     OW53826   4.349   1.133  11.719  0.8616 -0.0185  0.2131
17462SOL    HW153827   4.366   1.184  11.640  0.9751 -1.7822 -0.9716
17462SOL    HW253828   4.344   1.042  11.688 -0.4493 -0.6368  2.0290
17463SOL     OW53829   0.526   7.189   9.006 -0.4238  0.0923 -0.6942
17463SOL    HW153830   0.537   7.098   8.980 -0.5073  0.2903 -1.4439
17463SOL    HW253831   0.506   7.185   9.099 -0.8301 -0.6819 -0.8072
17464SOL     OW53832   0.453   3.666   2.861  0.1059 -0.6159 -0.4785
17464SOL    HW153833   0.544   3.692   2.873 -0.4099  0.6215  1.1350
17464SOL    HW253834   0.435   3.609   2.936 -0.3653 -1.1457 -0.9853
17465SOL     OW53835   5.562   4.883   8.381  0.2697  0.5054 -0.3107
17465SOL    HW153836   5.581   4.855   8.291 -0.6783 -1.6178  0.0945
17465SOL    HW253837   5.647   4.885   8.424  0.5377 -0.2906 -0.7842
17466SOL     OW53838   5.370   1.042   0.891  0.5576 -0.1733  0.0191
17466SOL    HW153839   5.351   1.105   0.821 -0.0546  2.1807  2.1638
17466SOL    HW253840   5.457   1.008   0.869  1.4700  2.3485 -0.6401
17467SOL     OW53841   0.582   2.048   3.146 -0.1626 -0.1295 -0.4927
17467SOL    HW153842   0.588   2.032   3.051 -0.3846  2.5546 -1.0264
17467SOL    HW253843   0.568   2.142   3.154 -0.8883 -0.3855  2.2196
17468SOL     OW53844   2.651   6.361   6.613  0.1617 -0.0187  0.1882
17468SOL    HW153845   2.574   6.308   6.633 -1.0484  1.4443 -0.4865
17468SOL    HW253846   2.662   6.418   6.689  1.1216 -0.7885  0.6588
17469SOL     OW53847   4.791   5.672   5.423  0.2152  0.1348 -0.5958
17469SOL    HW153848   4.840   5.656   5.342  1.8979  3.2089 -0.3556
17469SOL    HW253849   4.784   5.768   5.428 -1.5048 -0.0246  1.9734
17470SOL     OW53850   2.242   0.648   0.758  0.2128  0.4654  0.0230
17470SOL    HW153851   2.285   0.671   0.840  0.9165 -1.3100  0.2088
17470SOL    HW253852   2.149   0.666   0.773  0.3836  0.5367  1.0648
17471SOL     OW53853   1.471   2.160   7.416 -0.4300  0.7117 -0.1886
17471SOL    HW153854   1.463   2.236   7.358  0.8112  0.1316 -1.1545
17471SOL    HW253855   1.383   2.123   7.420 -0.5417  0.7673 -1.7001
17472SOL     OW53856   7.669   4.476   3.936 -0.2006  0.3874 -0.4356
17472SOL    HW153857   7.731   4.513   3.873  1.2408  1.2211  1.3900
17472SOL    HW253858   7.708   4.493   4.022 -2.1388 -0.6155  0.7236
17473SOL     OW53859   6.682   2.008   6.629  0.0053 -0.1718  0.5286
17473SOL    HW153860   6.747   2.078   6.638 -0.3878  0.3509 -0.5226
17473SOL    HW253861   6.607   2.038   6.680  0.2311 -0.3238  0.9502
17474SOL     OW53862   6.716   4.331   9.571 -0.2025 -0.0878 -0.1600
17474SOL    HW153863   6.680   4.311   9.657  1.9741 -1.3500  0.5254
17474SOL    HW253864   6.810   4.342   9.586  0.3143 -0.8952 -2.4500
17475SOL     OW53865   7.411   5.281   0.303  0.7934  0.4863  0.1054
17475SOL    HW153866   7.359   5.209   0.268 -0.4636  1.7316 -0.7036
17475SOL    HW253867   7.375   5.297   0.390  2.9298 -1.6233  1.5110
17476SOL     OW53868   6.158   7.945   0.014 -0.0692  0.3522 -0.4011
17476SOL    HW153869   6.213   7.874  -0.019 -0.7404  0.2238 -1.2787
17476SOL    HW253870   6.200   7.971   0.097  0.6169 -0.5413 -0.4469
17477SOL     OW53871   6.237   4.747   3.005 -0.2086  0.2053 -0.2221
17477SOL    HW153872   6.193   4.831   3.001  0.7640  0.8629  1.6514
17477SOL    HW253873   6.313   4.762   3.062  0.7724 -1.5952 -0.9674
17478SOL     OW53874   2.367   6.328   3.600  0.4074 -0.3513 -0.4930
17478SOL    HW153875   2.407   6.397   3.652  0.7174 -0.8356 -0.0799
17478SOL    HW253876   2.307   6.374   3.541 -0.6191  0.1571  0.8789
17479SOL     OW53877   7.433   1.053   6.677  0.2377 -0.0787 -0.1332
17479SOL    HW153878   7.476   1.137   6.658 -0.1416  0.3637  0.8771
17479SOL    HW253879   7.364   1.076   6.740 -1.0696 -0.8592 -1.2262
17480SOL     OW53880   1.300   2.592   6.255 -0.0702  0.0628 -0.5744
17480SOL    HW153881   1.351   2.519   6.290 -0.0320 -0.0701 -0.9045
17480SOL    HW253882   1.308   2.661   6.321 -0.5149 -0.4003 -0.0295
17481SOL     OW53883   4.062   6.656   7.969  0.1892 -0.3310 -0.6738
17481SOL    HW153884   4.133   6.599   7.939  0.5834 -1.0682  1.4861
17481SOL    HW253885   3.999   6.597   8.009 -0.0394  0.6142  0.4071
17482SOL     OW53886   0.136   2.306  12.328  0.6862 -0.0273 -0.3934
17482SOL    HW153887   0.179   2.370  12.272  0.0503  0.1119 -0.7269
17482SOL    HW253888   0.050   2.294  12.290  1.4237 -2.5180 -1.4650
17483SOL     OW53889   1.082   7.626  10.179 -0.1930  0.0834 -0.1801
17483SOL    HW153890   1.070   7.708  10.226 -1.0405  0.1739 -0.5338
17483SOL    HW253891   1.025   7.564  10.226  0.9534 -0.4818  0.5016
17484SOL     OW53892   7.565   0.275   3.147 -0.0530 -0.3982  0.1828
17484SOL    HW153893   7.576   0.370   3.146 -1.7333 -0.1762 -1.0058
17484SOL    HW253894   7.652   0.241   3.168  0.5051  1.3945  0.9553
17485SOL     OW53895   4.079   7.221   0.648 -0.0443  0.3462  0.3374
17485SOL    HW153896   4.135   7.263   0.582 -0.6352  1.3124  0.4365
17485SOL    HW253897   4.134   7.215   0.726  0.3549  0.0531  0.0385
17486SOL     OW53898   0.428   7.282   0.219 -0.1307  0.2259 -0.3461
17486SOL    HW153899   0.369   7.332   0.277 -0.0471 -1.0541  0.8898
17486SOL    HW253900   0.516   7.306   0.248 -0.0215  1.1815 -1.3739
17487SOL     OW53901   3.972   6.166   9.307  0.2380 -0.0599  0.5610
17487SOL    HW153902   3.898   6.108   9.327 -0.4107  0.9234  1.0783
17487SOL    HW253903   4.012   6.127   9.229  0.1262 -1.4785  1.1708
17488SOL     OW53904   2.827   1.581   9.923 -0.9882  0.5774 -0.1415
17488SOL    HW153905   2.916   1.579   9.958 -0.2005  0.5817 -2.0260
17488SOL    HW253906   2.812   1.493   9.890 -1.4818  0.7224 -0.3131
17489SOL     OW53907   7.357   1.451   9.850 -0.1265 -0.4344 -0.3071
17489SOL    HW153908   7.289   1.448   9.783 -0.4229  3.8613 -0.5018
17489SOL    HW253909   7.412   1.525   9.824  0.3517  0.7803  3.5720
17490SOL     OW53910   2.042   0.054   3.913 -0.1737  0.3423  0.4168
17490SOL    HW153911   1.952   0.086   3.911 -0.2381  0.1519 -2.0240
17490SOL    HW253912   2.070   0.052   3.822  1.0312 -3.1421  0.7079
17491SOL     OW53913   0.226   1.385   1.761  0.1068  0.4404 -0.1498
17491SOL    HW153914   0.216   1.455   1.826 -1.1116  3.4140 -3.2364
17491SOL    HW253915   0.301   1.412   1.708  0.4717 -1.3736 -0.6111
17492SOL     OW53916   5.380   2.171   6.954  0.0377  0.2490  0.1063
17492SOL    HW153917   5.457   2.134   6.910  2.2158  1.6553  2.4474
17492SOL    HW253918   5.395   2.266   6.951 -0.9963  0.4932  1.6383
17493SOL     OW53919   1.516   5.865  12.173 -0.0773  0.0122 -0.0859
17493SOL    HW153920   1.514   5.829  12.084 -0.2715  0.3720 -0.2272
17493SOL    HW253921   1.460   5.943  12.169 -0.7718 -0.4321  0.5534
17494SOL     OW53922   6.994   1.242   5.187 -0.6542  0.2082 -0.3199
17494SOL    HW153923   7.013   1.187   5.111  0.0201  1.2716 -0.9405
17494SOL    HW253924   7.048   1.206   5.257  0.0568  0.2940 -0.8153
17495SOL     OW53925   5.988   7.039   7.130 -0.3415  0.0312  0.4513
17495SOL    HW153926   5.964   6.997   7.213 -0.7200 -0.9470 -0.1452
17495SOL    HW253927   6.071   7.082   7.149  0.4388 -1.5952  0.8894
17496SOL     OW53928   0.415   0.274   3.311  0.1541  0.0270  0.0606
17496SOL    HW153929   0.341   0.226   3.272  1.8272 -1.5138 -1.3749
17496SOL    HW253930   0.447   0.216   3.380  1.3980 -0.3519 -0.8206
17497SOL     OW53931   4.789   4.923  10.499 -0.2038  0.3456  0.1591
17497SOL    HW153932   4.803   4.830  10.482  1.9533  0.1421  2.5350
17497SOL    HW253933   4.859   4.948  10.558 -0.2494  3.7231 -0.9853
17498SOL     OW53934   7.731   0.290   7.357  0.4952  0.3225 -0.5652
17498SOL    HW153935   7.791   0.333   7.418  1.1165 -0.3087 -0.7123
17498SOL    HW253936   7.782   0.217   7.321 -0.5262 -0.5261 -0.3285
17499SOL     OW53937   2.241   2.474   5.193 -0.2642  0.2756 -0.2662
17499SOL    HW153938   2.265   2.382   5.181 -0.7471  0.2965 -1.7071
17499SOL    HW253939   2.305   2.509   5.254  0.2986 -0.8644 -0.1815
17500SOL     OW53940   4.613   6.557   9.222 -0.0491 -0.3395  0.5439
17500SOL    HW153941   4.634   6.618   9.151  1.7591  0.0268  1.3401
17500SOL    HW253942   4.581   6.613   9.293 -2.6111 -0.7716 -0.1611
17501SOL     OW53943   4.877   0.699  10.286 -0.7013  0.0330  0.3343
17501SOL    HW153944   4.932   0.764  10.243  0.0465 -0.7184  0.1169
17501SOL    HW253945   4.792   0.708  10.244 -0.8111  1.3360  0.7959
17502SOL     OW53946   0.156   5.895   4.029  1.0274 -0.5266 -0.4748
17502SOL    HW153947   0.200   5.932   4.105  1.2440 -1.5501 -0.0850
17502SOL    HW253948   0.069   5.935   4.029  0.6610 -1.2816  0.9110
17503SOL     OW53949   2.283   4.838  10.455  0.0584  0.6116  0.4589
17503SOL    HW153950   2.310   4.769  10.394 -1.4053 -0.4646  0.9752
17503SOL    HW253951   2.235   4.792  10.524  1.4752  1.8031  2.3515
17504SOL     OW53952   0.623   3.213   1.485 -0.5243  0.0958 -0.3688
17504SOL    HW153953   0.700   3.249   1.529 -0.9712  0.6298 -0.0083
17504SOL    HW253954   0.635   3.236   1.393  0.6475 -1.4349 -0.6494
17505SOL     OW53955   3.347   4.740  10.904  0.3793  0.3545 -0.0092
17505SOL    HW153956   3.393   4.814  10.943  1.3474  0.2730 -0.9323
17505SOL    HW253957   3.262   4.775  10.877  1.1815  1.3901 -1.2902
17506SOL     OW53958   6.042   3.658   9.390 -0.0290 -0.4914  0.7965
17506SOL    HW153959   6.070   3.566   9.390 -0.5802 -0.6794 -0.1074
17506SOL    HW253960   5.951   3.654   9.358  0.0112  0.3844  0.5635
17507SOL     OW53961   5.936   6.597  12.316  0.3066 -0.9166  0.1558
17507SOL    HW153962   5.855   6.638  12.347  0.0993 -1.3251  0.1485
17507SOL    HW253963   5.997   6.671  12.305 -0.6017 -0.3657 -1.5788
17508SOL     OW53964   7.030   0.035   8.309  0.1469  0.4651  0.6224
17508SOL    HW153965   7.061  -0.046   8.348 -0.9390 -0.1828  0.1863
17508SOL    HW253966   6.944   0.050   8.350  0.4946  1.6017  0.9807
17509SOL     OW53967   4.477   5.612   5.181  0.4586  0.2641 -0.3202
17509SOL    HW153968   4.547   5.558   5.220  1.2484  1.3200 -0.2257
17509SOL    HW253969   4.420   5.634   5.255  0.5527  0.1734 -0.2202
17510SOL     OW53970   7.310   2.972   8.388 -0.1980 -0.0859  1.0055
17510SOL    HW153971   7.347   3.050   8.348  2.4221 -0.2102  2.9157
17510SOL    HW253972   7.369   2.901   8.360 -0.9007 -0.8960  1.5357
17511SOL     OW53973   7.479   4.598   7.502 -0.4282 -0.6249 -0.2831
17511SOL    HW153974   7.406   4.552   7.543  1.4260 -1.8632  1.8379
17511SOL    HW253975   7.554   4.539   7.512  1.3002  1.3834 -0.5947
17512SOL     OW53976   1.440   1.339  11.346  0.1478  0.3040 -0.5141
17512SOL    HW153977   1.487   1.422  11.340 -1.2480  1.0903 -1.0093
17512SOL    HW253978   1.349   1.364  11.358 -0.1525 -1.1808  0.6715
17513SOL     OW53979   7.944   2.430   7.608  0.1627  0.0072  0.2565
17513SOL    HW153980   8.003   2.428   7.683 -0.1520  0.1508  0.5100
17513SOL    HW253981   7.959   2.516   7.569 -1.6439  1.0718  1.7604
17514SOL     OW53982   7.045   0.165  10.980  0.0267  0.4668 -0.0336
17514SOL    HW153983   7.035   0.256  11.008  0.8320  0.4218  0.4353
17514SOL    HW253984   7.123   0.166  10.924  0.9357 -0.1747  1.1740
17515SOL     OW53985   4.915   3.116   1.063  0.3603  0.3640 -0.2972
17515SOL    HW153986   5.005   3.120   1.031  0.8844 -0.2963  1.0360
17515SOL    HW253987   4.918   3.057   1.138 -1.0676  0.8385  0.1747
17516SOL     OW53988   4.933   4.241   5.206  0.3079 -0.5243 -0.5845
17516SOL    HW153989   4.999   4.266   5.142  1.8235  0.2967  1.2110
17516SOL    HW253990   4.871   4.314   5.207  1.3281  0.3511  0.2206
17517SOL     OW53991   4.949   3.831   9.396 -0.0696  0.1310  0.4290
17517SOL    HW153992   5.045   3.837   9.397 -0.0659  0.4939 -0.6084
17517SOL    HW253993   4.930   3.780   9.318 -0.7629  1.2706 -0.1769
17518SOL     OW53994   3.477   0.077   9.951  0.2093 -0.5129  0.2678
17518SOL    HW153995   3.544   0.142   9.973  2.4324 -2.4223 -0.5666
17518SOL    HW253996   3.503   0.043   9.866 -1.6472 -1.5708  0.0716
17519SOL     OW53997   4.623   0.288   6.575 -0.6295 -0.3495 -0.1041
17519SOL    HW153998   4.665   0.217   6.526 -1.2639 -0.9937  0.2654
17519SOL    HW253999   4.603   0.249   6.660 -0.5364  0.4322  0.2772
17520SOL     OW54000   0.849   2.070   1.482  0.4610  0.0956  0.3809
17520SOL    HW154001   0.916   2.003   1.492  1.0064  0.4949 -0.4759
17520SOL    HW254002   0.793   2.060   1.559  0.5261 -1.3430  0.2774
17521SOL     OW54003   6.313   4.267  10.422 -0.2123 -0.2312 -0.1062
17521SOL    HW154004   6.299   4.227  10.507 -0.5244  1.2494  0.5776
17521SOL    HW254005   6.297   4.361  10.437  0.4941  0.1568 -1.6164
17522SOL     OW54006   6.037   6.462   5.407 -0.1636 -0.5296 -0.2826
17522SOL    HW154007   6.081   6.460   5.492  1.5955  1.5368 -1.0499
17522SOL    HW254008   6.099   6.420   5.347 -1.4852 -2.1836 -0.5470
17523SOL     OW54009   3.716   3.105   4.661 -0.1605 -0.1307  0.7704
17523SOL    HW154010   3.803   3.095   4.623  0.5553  0.6829  2.0836
17523SOL    HW254011   3.684   3.188   4.627 -0.0549 -0.0205  0.9350
17524SOL     OW54012   3.582   0.888   9.895  0.1426  0.5016 -0.0327
17524SOL    HW154013   3.559   0.804   9.853  0.8638 -0.3364  1.1907
17524SOL    HW254014   3.499   0.920   9.930 -0.2388  0.5829 -0.9867
17525SOL     OW54015   7.421   4.579  11.224  0.1155  0.3302  0.2154
17525SOL    HW154016   7.366   4.534  11.288 -0.9095  0.3571 -0.6255
17525SOL    HW254017   7.404   4.672  11.239 -0.2745  0.3323 -0.2030
17526SOL     OW54018   7.815   4.658   9.366  0.2413 -0.3241  0.2871
17526SOL    HW154019   7.733   4.655   9.417  0.2736 -2.1793  0.2730
17526SOL    HW254020   7.878   4.698   9.426 -0.0314 -1.3205  1.2777
17527SOL     OW54021   7.738   0.432   5.274 -0.1556  0.3747  0.5541
17527SOL    HW154022   7.778   0.354   5.312 -0.3922 -0.1937 -0.3405
17527SOL    HW254023   7.713   0.406   5.185  1.2799  1.9190 -0.3847
17528SOL     OW54024   7.284   5.765   3.095 -0.4049  0.2306 -0.1901
17528SOL    HW154025   7.354   5.816   3.055 -1.7578  0.5095 -2.3891
17528SOL    HW254026   7.315   5.747   3.183  1.7907  1.5492 -0.6074
17529SOL     OW54027   6.347   0.630   4.619  0.0870 -0.4048  0.4810
17529SOL    HW154028   6.399   0.621   4.699  0.0824 -0.0684  0.5228
17529SOL    HW254029   6.357   0.722   4.594  0.0859 -0.5100  0.0948
17530SOL     OW54030   6.065   6.404   4.127  0.0479 -0.3756  0.5599
17530SOL    HW154031   6.048   6.452   4.208 -0.2977  0.4670  0.0056
17530SOL    HW254032   6.155   6.428   4.104 -0.1288  0.0375  0.2772
17531SOL     OW54033   0.683   2.010   2.023 -0.0849 -0.0414  0.6508
17531SOL    HW154034   0.675   1.915   2.015 -0.6659  0.0808 -0.4556
17531SOL    HW254035   0.691   2.026   2.117 -0.1888 -1.1688  0.8636
17532SOL     OW54036   6.292   5.229   4.867 -0.0965 -0.6515  0.9602
17532SOL    HW154037   6.221   5.288   4.892 -0.5906 -0.4475 -0.7660
17532SOL    HW254038   6.249   5.160   4.816  1.1526  0.8382 -2.3749
17533SOL     OW54039   7.046   5.332   7.817  0.4637  0.3568  0.3896
17533SOL    HW154040   7.108   5.286   7.760 -0.4523 -0.0032 -0.3430
17533SOL    HW254041   7.023   5.411   7.768 -1.1553 -0.4820 -0.2704
17534SOL     OW54042   2.690   2.181   6.416  0.1230 -0.6711 -0.0176
17534SOL    HW154043   2.615   2.143   6.460 -1.0125 -3.0613 -3.5693
17534SOL    HW254044   2.762   2.120   6.431  1.2086  1.0566  2.4564
17535SOL     OW54045   7.585   2.105   4.560  0.5362 -0.1066  0.2107
17535SOL    HW154046   7.568   2.021   4.517  0.8466  0.5963 -1.3848
17535SOL    HW254047   7.510   2.119   4.616 -1.5844  0.3669 -2.5203
17536SOL     OW54048   7.159   7.569   1.976  0.4698 -0.0975 -0.4257
17536SOL    HW154049   7.210   7.533   2.048 -0.8531 -1.0596  0.0550
17536SOL    HW254050   7.097   7.629   2.017 -3.0217 -3.5354 -0.1003
17537SOL     OW54051   3.877   1.642   0.038  0.3445 -0.3298 -0.5117
17537SOL    HW154052   3.933   1.632  -0.038  0.6723  0.4195 -0.3857
17537SOL    HW254053   3.932   1.685   0.103 -0.4101  0.5685 -0.4382
17538SOL     OW54054   3.931   7.330   0.950 -0.4099 -0.0168  0.0495
17538SOL    HW154055   3.973   7.398   0.896  2.9176 -2.3798 -0.6655
17538SOL    HW254056   3.989   7.322   1.026 -0.4295 -2.3319 -0.1237
17539SOL     OW54057   0.272   7.301   6.108 -0.1135 -0.5085 -0.3584
17539SOL    HW154058   0.285   7.236   6.178  0.5249 -0.6756 -0.6178
17539SOL    HW254059   0.319   7.379   6.139  0.3008 -0.6329 -0.6585
17540SOL     OW54060   6.597   2.707   8.602 -0.2679  0.2731  0.9508
17540SOL    HW154061   6.529   2.657   8.557 -0.7662 -0.1620  2.1557
17540SOL    HW254062   6.664   2.722   8.534 -1.3333  0.3143 -0.1324
17541SOL     OW54063   5.631   1.970  11.683 -0.6237 -0.1859 -0.6043
17541SOL    HW154064   5.715   1.964  11.637 -0.6004  0.0064 -0.5874
17541SOL    HW254065   5.585   2.042  11.639 -0.1428  0.7712  0.3946
17542SOL     OW54066   2.791   7.149   1.946 -0.9215  0.4174  0.8360
17542SOL    HW154067   2.855   7.214   1.918 -3.3147  2.1926 -0.9179
17542SOL    HW254068   2.732   7.197   2.004 -2.9205 -0.0214 -0.7201
17543SOL     OW54069   5.726   3.492   7.672 -0.1946 -0.1962 -0.2064
17543SOL    HW154070   5.740   3.570   7.726 -0.2096 -0.7871  0.6549
17543SOL    HW254071   5.634   3.469   7.688 -0.8174  0.7737 -2.0256
17544SOL     OW54072   4.385   5.053   9.960  0.4623 -0.2385 -0.2633
17544SOL    HW154073   4.366   5.142   9.989 -0.2056 -0.7802  0.9755
17544SOL    HW254074   4.348   4.996  10.027  0.8162 -1.4676 -1.0728
17545SOL     OW54075   1.359   7.613   0.084  0.4596  0.8007 -0.2308
17545SOL    HW154076   1.439   7.650   0.123  1.2409 -0.9769 -0.0577
17545SOL    HW254077   1.322   7.685   0.034  2.1451  1.7015 -0.2740
17546SOL     OW54078   7.962   6.341  12.448 -0.7466  0.3264  0.3513
17546SOL    HW154079   8.000   6.254  12.435 -0.2956  0.6772 -0.7953
17546SOL    HW254080   7.983   6.363  12.539  0.4690 -0.1348  0.2008
17547SOL     OW54081   5.783   6.188   1.878 -0.3320  0.2422  0.3142
17547SOL    HW154082   5.846   6.200   1.808  0.4919  1.3101  1.2145
17547SOL    HW254083   5.775   6.093   1.887  1.7796  0.0749  0.7360
17548SOL     OW54084   7.135   4.835   9.340  0.2024 -0.0760 -0.3096
17548SOL    HW154085   7.143   4.879   9.255  0.0858 -2.0094 -1.3771
17548SOL    HW254086   7.072   4.765   9.324 -1.5468  0.8431  1.9772
17549SOL     OW54087   4.283   7.454   3.202  0.2587  0.2959  0.0828
17549SOL    HW154088   4.269   7.477   3.294 -2.0843  1.8739 -0.5815
17549SOL    HW254089   4.230   7.376   3.188  0.0031  0.5044 -0.1108
17550SOL     OW54090   4.247   1.589   9.024  0.0368  0.3741 -0.0246
17550SOL    HW154091   4.211   1.674   9.048  0.7021  0.7016 -0.1547
17550SOL    HW254092   4.233   1.582   8.929  3.7675  2.2882 -0.9163
17551SOL     OW54093   7.652   3.683   2.687  0.7529 -0.2720  0.0475
17551SOL    HW154094   7.615   3.747   2.747  1.2796  0.2509 -0.1781
17551SOL    HW254095   7.623   3.712   2.600  0.7358 -0.5106 -0.0274
17552SOL     OW54096   7.917   3.435  12.181  0.3562 -0.4422  0.3754
17552SOL    HW154097   7.956   3.452  12.096 -0.1828 -2.8918 -0.4408
17552SOL    HW254098   7.948   3.347  12.205 -0.2696 -0.1984  2.2616
17553SOL     OW54099   1.064   6.623   6.742 -0.3929  0.2344  0.1727
17553SOL    HW154100   1.141   6.580   6.704 -0.0051 -0.1174  1.3330
17553SOL    HW254101   1.097   6.670   6.818 -0.8669  2.3998 -0.8809
17554SOL     OW54102   5.313   0.204   6.716  0.0643 -0.0986 -0.0102
17554SOL    HW154103   5.264   0.167   6.790  0.0086  1.9012  1.0143
17554SOL    HW254104   5.249   0.209   6.645 -0.0951 -1.2933  0.0257
17555SOL     OW54105   4.090   0.394   1.137 -0.9325  0.6103 -0.0225
17555SOL    HW154106   4.081   0.330   1.066 -0.0679 -1.0346  1.2909
17555SOL    HW254107   4.126   0.472   1.094  0.8214 -0.7747 -1.2375
17556SOL     OW54108   2.320   0.920   2.304 -0.0145  0.2379  0.0936
17556SOL    HW154109   2.407   0.939   2.338 -0.2112 -1.3467  1.5882
17556SOL    HW254110   2.335   0.892   2.213  1.1495 -1.0455  0.6566
17557SOL     OW54111   0.881   4.919   1.957 -0.0769  0.8600  0.2102
17557SOL    HW154112   0.814   4.966   1.907 -0.4287  1.6833  1.3992
17557SOL    HW254113   0.938   4.988   1.992 -0.9818  0.5311  2.5309
17558SOL     OW54114   0.931   1.835   5.953  0.1005 -0.1322 -0.6170
17558SOL    HW154115   0.961   1.919   5.989 -0.9668 -0.0016  0.0280
17558SOL    HW254116   0.948   1.772   6.023 -1.0930 -0.0508 -0.2302
17559SOL     OW54117   6.777   7.677   6.781  0.0059  0.3248 -0.4147
17559SOL    HW154118   6.765   7.732   6.858  0.0018 -0.3729  0.0850
17559SOL    HW254119   6.868   7.691   6.755  0.1519  0.1765  0.0157
17560SOL     OW54120   4.371   5.535  11.199 -0.2753 -1.2248  0.1723
17560SOL    HW154121   4.411   5.622  11.194 -2.5731 -0.1669 -1.5311
17560SOL    HW254122   4.417   5.492  11.271  1.8109  0.9125  0.2602
17561SOL     OW54123   1.221   4.543   7.555  0.3536 -0.1452  0.0851
17561SOL    HW154124   1.177   4.625   7.579 -0.3051 -0.1064 -1.2062
17561SOL    HW254125   1.155   4.475   7.571  0.4684 -0.2914 -0.0645
17562SOL     OW54126   7.219   6.224   3.294 -0.0824  0.2332 -0.2958
17562SOL    HW154127   7.188   6.155   3.353 -0.2440 -0.3874 -1.0804
17562SOL    HW254128   7.166   6.213   3.215  0.9498  0.2713 -1.0053
17563SOL     OW54129   0.319   7.832   4.999  0.4099 -0.1619 -0.2784
17563SOL    HW154130   0.388   7.891   4.967 -1.0457  3.1309  2.0685
17563SOL    HW254131   0.352   7.801   5.084 -0.2148 -0.0129  0.0252
17564SOL     OW54132   3.201   7.401   4.136 -0.5971 -0.1907  0.1531
17564SOL    HW154133   3.240   7.317   4.158 -0.7107 -0.1108  0.6990
17564SOL    HW254134   3.248   7.431   4.059  0.2880 -0.1902  0.6844
17565SOL     OW54135   2.445   2.799   3.434 -0.4081  0.4003  0.0129
17565SOL    HW154136   2.395   2.806   3.515 -0.6823 -0.1389 -0.1023
17565SOL    HW254137   2.397   2.854   3.372 -0.7820  0.0124 -0.0540
17566SOL     OW54138   6.411   0.737  10.999 -0.3538 -0.2760 -0.3108
17566SOL    HW154139   6.453   0.792  11.066 -2.3843 -1.0358  1.7441
17566SOL    HW254140   6.445   0.649  11.015 -0.2900 -0.3364 -0.7737
17567SOL     OW54141   2.808   2.943   0.217  0.4080 -0.2016 -0.5888
17567SOL    HW154142   2.845   2.855   0.213 -0.9206 -0.8976  1.1943
17567SOL    HW254143   2.846   2.982   0.295 -0.7656 -0.0629 -0.0657
17568SOL     OW54144   0.906   7.171   5.762  0.1769 -0.9212  0.1951
17568SOL    HW154145   0.939   7.098   5.709  0.2162 -1.3031  0.7411
17568SOL    HW254146   0.886   7.240   5.698 -0.0132 -1.4640 -0.3360
17569SOL     OW54147   6.429   5.899   5.073  0.1586  0.0287 -0.1476
17569SOL    HW154148   6.407   5.807   5.058  0.6829 -0.3708  1.3398
17569SOL    HW254149   6.345   5.942   5.087  0.0237 -0.7505  1.7190
17570SOL     OW54150   3.336   5.992   8.112 -0.1189  0.2021 -0.0537
17570SOL    HW154151   3.243   6.001   8.136  0.3366 -2.2992  3.3877
17570SOL    HW254152   3.339   5.914   8.057 -0.0266  0.0295  0.1948
17571SOL     OW54153   4.838   0.561   5.408  0.4384  0.1548 -0.3676
17571SOL    HW154154   4.872   0.478   5.442  0.5421  0.4855  0.3721
17571SOL    HW254155   4.793   0.538   5.327  0.2209 -0.6649 -0.0237
17572SOL     OW54156   4.244   7.965   5.152  0.6658 -0.8693  0.0865
17572SOL    HW154157   4.182   7.947   5.223  1.4663 -0.0685  1.0143
17572SOL    HW254158   4.241   7.887   5.097 -0.6771 -1.1131  0.4733
17573SOL     OW54159   3.384   6.394   6.876 -0.2655 -0.1323  0.1923
17573SOL    HW154160   3.289   6.409   6.872 -0.2303 -0.2692 -1.7865
17573SOL    HW254161   3.392   6.307   6.916 -0.9446  0.0344  0.7165
17574SOL     OW54162   1.660   1.280   0.174 -0.1871  0.0546  0.0111
17574SOL    HW154163   1.643   1.354   0.115 -1.1391 -1.6414 -1.9707
17574SOL    HW254164   1.626   1.309   0.259 -2.1841  1.2591 -1.1096
17575SOL     OW54165   7.333   0.256   9.621 -0.0532 -0.4419 -0.3871
17575SOL    HW154166   7.371   0.222   9.540 -0.0541  0.0022 -0.5748
17575SOL    HW254167   7.365   0.197   9.689  1.4291  0.2328 -0.4535
17576SOL     OW54168   4.387   5.212   5.554 -0.1039  0.2590 -0.8102
17576SOL    HW154169   4.350   5.213   5.466  0.9625 -1.3171 -1.3260
17576SOL    HW254170   4.335   5.146   5.601  1.3062 -1.2252 -1.2430
17577SOL     OW54171   2.901   1.391   2.170 -0.0546 -0.6133 -0.2148
17577SOL    HW154172   2.903   1.346   2.085  1.1787 -0.6167 -0.2048
17577SOL    HW254173   2.944   1.330   2.230  0.7447  0.1463  0.0058
17578SOL     OW54174   3.578   7.526   9.939 -0.2219  0.3844  0.4793
17578SOL    HW154175   3.626   7.455   9.897 -1.2241 -0.1567  0.1981
17578SOL    HW254176   3.566   7.591   9.870 -0.5898  0.1508  0.3162
17579SOL     OW54177   0.947   2.182  12.362  0.2109  0.1623 -0.0656
17579SOL    HW154178   0.923   2.227  12.280 -0.9069 -1.9803 -0.9874
17579SOL    HW254179   0.938   2.250  12.429 -2.2806  1.1519 -1.2612
17580SOL     OW54180   6.148   0.303   4.979  0.0324  0.6188 -0.0134
17580SOL    HW154181   6.133   0.360   5.054  0.2396  0.9217 -0.2035
17580SOL    HW254182   6.087   0.230   4.993 -1.0476  1.4281 -0.3409
17581SOL     OW54183   2.410   6.695   4.521 -0.6334  0.2084 -0.3151
17581SOL    HW154184   2.323   6.729   4.543 -1.2857 -0.8775 -1.1472
17581SOL    HW254185   2.437   6.746   4.444  1.2264  3.3099  2.1240
17582SOL     OW54186   1.988   1.323   8.841  0.5648  0.0714 -0.3306
17582SOL    HW154187   1.894   1.315   8.828  0.0833  2.8459  0.6240
17582SOL    HW254188   2.006   1.271   8.919 -0.4798  0.6359  0.3147
17583SOL     OW54189   2.128   2.657   8.180  0.1258  0.6368  0.2509
17583SOL    HW154190   2.046   2.632   8.139  1.1724 -1.4120 -0.7413
17583SOL    HW254191   2.182   2.689   8.108  0.1430  2.2386  0.9380
17584SOL     OW54192   6.703   0.019   8.776 -0.9415  0.6805  0.2486
17584SOL    HW154193   6.718  -0.058   8.832 -0.3489  0.5890 -0.0333
17584SOL    HW254194   6.667   0.085   8.836 -0.9472  0.3614  0.6012
17585SOL     OW54195   5.458   3.033   6.446 -0.1144  0.1088 -0.0281
17585SOL    HW154196   5.434   3.108   6.501 -0.0524  0.6383 -0.7066
17585SOL    HW254197   5.377   3.008   6.402  0.1113  0.5686 -0.7311
17586SOL     OW54198   1.110   2.681   4.515 -0.0527  0.7114 -0.2555
17586SOL    HW154199   1.018   2.704   4.525 -0.7674 -0.9671 -2.2292
17586SOL    HW254200   1.126   2.614   4.582 -1.2218 -1.2790 -1.8445
17587SOL     OW54201   7.411   0.766  12.416 -0.7995 -0.5046  0.3030
17587SOL    HW154202   7.453   0.741  12.333  1.3960  1.4798  0.7010
17587SOL    HW254203   7.377   0.854  12.400 -0.1711 -0.0187  1.5374
17588SOL     OW54204   5.260   3.824   8.874  0.1578  0.1986 -0.1977
17588SOL    HW154205   5.169   3.826   8.843  0.4616 -0.4664 -1.1821
17588SOL    HW254206   5.268   3.902   8.930 -0.2456  1.9046 -2.3455
17589SOL     OW54207   6.900   1.119   1.842 -0.6164  0.0406 -0.2367
17589SOL    HW154208   6.918   1.069   1.762 -0.8956  0.5604 -0.6297
17589SOL    HW254209   6.969   1.091   1.903  0.5891  0.7996 -1.1859
17590SOL     OW54210   4.575   2.506   7.896 -0.1039 -0.2534  0.4208
17590SOL    HW154211   4.554   2.599   7.906 -2.0033 -0.4141 -1.3372
17590SOL    HW254212   4.525   2.462   7.964  0.3916 -0.0590  0.9222
17591SOL     OW54213   7.253   3.689   9.707  0.0556 -0.5267 -0.0088
17591SOL    HW154214   7.283   3.637   9.633  2.6263 -2.6008  2.2879
17591SOL    HW254215   7.295   3.775   9.695  1.2218 -1.1433 -0.4950
17592SOL     OW54216   1.216   1.454  12.203  0.1828  0.4324  0.0408
17592SOL    HW154217   1.220   1.387  12.270  0.3498  0.8674  0.4670
17592SOL    HW254218   1.231   1.536  12.249  1.5132  0.6299 -0.7019
17593SOL     OW54219   5.449   0.255   9.004  0.3227  0.3393 -0.1583
17593SOL    HW154220   5.360   0.243   8.972  0.7965 -0.9183 -1.0806
17593SOL    HW254221   5.493   0.172   8.985  1.8377  1.1101 -0.1865
17594SOL     OW54222   7.423   7.317   0.137  0.0888 -0.7718  0.2875
17594SOL    HW154223   7.488   7.248   0.123 -0.0930 -0.8183 -0.3675
17594SOL    HW254224   7.473   7.389   0.175  0.6367 -0.6132 -0.6987
17595SOL     OW54225   4.822   0.471   6.895  0.2990 -0.1869 -0.4205
17595SOL    HW154226   4.806   0.540   6.831  0.2778  0.2658  0.0674
17595SOL    HW254227   4.877   0.512   6.962  1.2211 -0.9565 -0.6877
17596SOL     OW54228   1.864   7.315   1.299  0.2096  0.3424 -0.5936
17596SOL    HW154229   1.806   7.387   1.277 -0.0128 -0.1996 -1.9516
17596SOL    HW254230   1.932   7.353   1.354 -0.9835  1.1485  0.3597
17597SOL     OW54231   7.854   2.193   6.048 -0.2188 -0.9122 -0.5458
17597SOL    HW154232   7.825   2.262   6.107  3.5247 -0.4937  1.1370
17597SOL    HW254233   7.825   2.112   6.090  0.4690 -0.5190  0.7538
17598SOL     OW54234   1.459   0.533  11.260  0.6994 -0.4381 -0.1624
17598SOL    HW154235   1.467   0.545  11.166  1.5183  0.6361  0.0211
17598SOL    HW254236   1.460   0.622  11.296 -0.7831 -0.7603  0.7832
17599SOL     OW54237   2.580   6.550   7.388 -0.5741  0.2285 -0.1367
17599SOL    HW154238   2.517   6.569   7.319  0.6975 -0.4106 -1.5286
17599SOL    HW254239   2.549   6.469   7.428 -1.9605  1.2077  0.8889
17600SOL     OW54240   0.956   7.946  12.033  0.0196 -0.2265  0.0053
17600SOL    HW154241   0.951   7.974  12.124 -1.5462 -0.8008  0.1372
17600SOL    HW254242   1.012   8.011  11.990 -1.8298  1.9618  0.7128
17601SOL     OW54243   0.276   1.837   2.663 -0.2337 -0.0200 -0.0600
17601SOL    HW154244   0.267   1.913   2.605  1.7900  1.0048  0.8431
17601SOL    HW254245   0.209   1.851   2.730  1.3947  2.1542  1.2365
17602SOL     OW54246   6.447   3.130   6.543 -0.2197  0.0972  0.4631
17602SOL    HW154247   6.447   3.034   6.533  0.1509  0.2493 -1.3161
17602SOL    HW254248   6.374   3.148   6.602 -1.0017 -1.2032 -0.0662
17603SOL     OW54249   0.216   2.938   7.165  0.4846  0.2005  0.0118
17603SOL    HW154250   0.201   2.851   7.127  1.2224 -0.6954  1.6606
17603SOL    HW254251   0.193   2.928   7.257 -0.5939  2.1117 -0.0073
17604SOL     OW54252   1.176   4.544   0.884  0.0282 -0.4132 -0.1979
17604SOL    HW154253   1.107   4.586   0.832  0.7685 -0.0528 -0.9205
17604SOL    HW254254   1.204   4.611   0.946 -1.3312 -1.0638  1.1795
17605SOL     OW54255   2.039   2.607   9.888  0.0802 -0.0834 -0.4870
17605SOL    HW154256   1.978   2.622   9.815  1.3193  1.8870 -1.1988
17605SOL    HW254257   2.010   2.667   9.956  0.2649 -0.3204 -0.2003
17606SOL     OW54258   3.260   7.416   8.340 -0.0229 -0.9301  0.0716
17606SOL    HW154259   3.212   7.354   8.395  0.8914 -1.2741  0.4901
17606SOL    HW254260   3.279   7.368   8.260 -3.2730  0.2181 -1.5908
17607SOL     OW54261   6.556   0.912   5.531 -0.9846 -0.1717  0.5290
17607SOL    HW154262   6.542   0.842   5.595  0.9318 -1.2401 -0.1369
17607SOL    HW254263   6.543   0.869   5.446  1.8003 -0.2274  0.0439
17608SOL     OW54264   6.891   4.667   3.258  0.5734 -0.3057  0.0946
17608SOL    HW154265   6.925   4.711   3.336  1.2672  1.1181 -0.9605
17608SOL    HW254266   6.882   4.737   3.193 -0.6316 -1.3346 -0.9117
17609SOL     OW54267   7.078   7.021   4.699  0.3985 -0.3586 -0.7666
17609SOL    HW154268   7.115   7.075   4.629  1.1454 -1.1027 -0.9606
17609SOL    HW254269   6.985   7.015   4.677  0.1892  1.2360 -0.4656
17610SOL     OW54270   3.142   6.750   0.640  0.1697 -0.4344 -0.2536
17610SOL    HW154271   3.098   6.695   0.703  0.6422 -3.0697 -2.0692
17610SOL    HW254272   3.236   6.736   0.657  0.2979 -0.4309 -0.9243
17611SOL     OW54273   2.342   5.071   2.041  0.6359  0.1929  0.1444
17611SOL    HW154274   2.334   4.984   2.081  0.8086 -1.1014 -2.4326
17611SOL    HW254275   2.420   5.065   1.986  0.6962  2.0262 -0.0412
17612SOL     OW54276   3.769   5.922  10.953 -0.3732 -0.5076 -0.8883
17612SOL    HW154277   3.857   5.883  10.957 -1.3737 -2.8899  2.4620
17612SOL    HW254278   3.720   5.866  10.894 -0.0086  0.1383 -1.8386
17613SOL     OW54279   1.157   0.225   0.944  0.5940 -0.2715 -0.2535
17613SOL    HW154280   1.179   0.136   0.918  2.3572 -0.2347  0.9301
17613SOL    HW254281   1.214   0.281   0.891 -0.3394  0.1605 -0.8275
17614SOL     OW54282   5.962   2.124   3.595 -0.2329 -0.1109 -0.5783
17614SOL    HW154283   5.965   2.161   3.683  0.0019 -1.0260 -0.1804
17614SOL    HW254284   6.037   2.162   3.549 -0.3566  0.3679 -0.3855
17615SOL     OW54285   3.520   4.567   1.930  0.2711  0.4433  0.1392
17615SOL    HW154286   3.500   4.494   1.871 -0.6323 -0.0727  1.0417
17615SOL    HW254287   3.596   4.610   1.891 -1.1588  1.0231 -2.2057
17616SOL     OW54288   1.520   3.922   8.941 -0.2791 -0.5818  0.1618
17616SOL    HW154289   1.562   3.882   9.018  1.2194  2.9978  1.4039
17616SOL    HW254290   1.578   3.900   8.868  1.4491  0.5657  1.1082
17617SOL     OW54291   2.936   0.143   4.458  0.4256  0.0218 -0.1935
17617SOL    HW154292   2.983   0.217   4.420 -0.4901  0.4899 -0.4576
17617SOL    HW254293   2.923   0.168   4.550 -0.5375  0.5566 -0.4541
17618SOL     OW54294   6.634   3.028   7.710  0.5321 -0.0264 -0.1425
17618SOL    HW154295   6.588   3.051   7.629  1.6035  2.0496 -0.2255
17618SOL    HW254296   6.726   3.050   7.693  1.1625 -1.5918  0.9309
17619SOL     OW54297   6.641   3.474   6.713  0.2458 -0.7643 -0.1890
17619SOL    HW154298   6.713   3.454   6.773 -0.2629  0.2710  0.8074
17619SOL    HW254299   6.639   3.569   6.708 -1.4340 -0.7311  0.3166
17620SOL     OW54300   1.414   5.397  11.749 -0.2621 -0.1940 -0.0106
17620SOL    HW154301   1.454   5.463  11.693  1.5412 -0.3353  1.0204
17620SOL    HW254302   1.320   5.412  11.741  0.0667  2.0885 -0.2717
17621SOL     OW54303   6.754   3.203   2.851  0.2498 -0.0902  0.0298
17621SOL    HW154304   6.761   3.177   2.759 -0.5872 -0.3968  0.0414
17621SOL    HW254305   6.843   3.224   2.877  0.7976 -1.8361 -0.3081
17622SOL     OW54306   6.361   3.492   1.699  0.2055 -0.6264 -0.0926
17622SOL    HW154307   6.454   3.504   1.681  0.4819 -1.1855  0.8698
17622SOL    HW254308   6.316   3.530   1.623  1.2183 -0.6033 -0.6947
17623SOL     OW54309   3.972   6.210  12.245  0.0425 -0.2736  0.3022
17623SOL    HW154310   3.885   6.205  12.284  0.7095  0.2005  1.9639
17623SOL    HW254311   3.984   6.303  12.226  0.4534 -0.2228  0.7773
17624SOL     OW54312   0.660   3.969   0.827  0.0106  0.3857 -0.1665
17624SOL    HW154313   0.681   3.974   0.920  0.3203  2.1383 -0.2894
17624SOL    HW254314   0.675   3.878   0.803  4.4212  0.7557  0.4822
17625SOL     OW54315   0.120   7.618   7.194 -0.3933  0.6543 -0.4984
17625SOL    HW154316   0.142   7.546   7.134 -1.3500 -1.2359  1.3062
17625SOL    HW254317   0.203   7.639   7.236 -0.4848 -1.1690  0.7295
17626SOL     OW54318   1.275   7.613  12.131 -0.0002  0.5161 -0.5540
17626SOL    HW154319   1.244   7.530  12.095 -0.1469 -0.2834  1.2828
17626SOL    HW254320   1.202   7.645  12.184  0.4286  1.2822 -0.4085
17627SOL     OW54321   7.241   5.621  10.611  0.4078  0.0255 -0.4263
17627SOL    HW154322   7.321   5.661  10.644  0.0718 -0.9292  1.7003
17627SOL    HW254323   7.259   5.527  10.613  0.0228 -0.1239 -2.1751
17628SOL     OW54324   2.882   4.873   6.547  0.0050  0.1504 -0.4037
17628SOL    HW154325   2.792   4.842   6.556 -0.7611  1.8579 -1.5657
17628SOL    HW254326   2.876   4.968   6.560  1.8351  0.1743  0.6118
17629SOL     OW54327   7.837   1.490   1.699  0.3063  0.8334 -0.4950
17629SOL    HW154328   7.772   1.421   1.684  1.8122 -0.8354  0.2853
17629SOL    HW254329   7.880   1.464   1.781  0.6946  2.9148  0.0122
17630SOL     OW54330   3.515   4.630   7.593 -0.6221  0.0257 -0.2911
17630SOL    HW154331   3.599   4.622   7.638 -0.7008 -0.1834 -0.1788
17630SOL    HW254332   3.452   4.643   7.664 -0.8447 -1.0299 -0.2803
17631SOL     OW54333   0.859   0.776   1.679  0.2574  0.7405 -0.2888
17631SOL    HW154334   0.855   0.870   1.696  2.8541  0.7891  0.6346
17631SOL    HW254335   0.879   0.770   1.585  1.0099  1.1949 -0.1750
17632SOL     OW54336   1.125   6.742   4.999  0.1803 -0.2342 -0.1782
17632SOL    HW154337   1.045   6.699   5.028  0.3948 -0.6869 -0.2470
17632SOL    HW254338   1.115   6.750   4.904  0.2436 -0.3375 -0.1927
17633SOL     OW54339   6.516   0.528   7.216  0.0004 -0.1102 -0.2380
17633SOL    HW154340   6.556   0.472   7.149  0.7027  1.7648 -1.4398
17633SOL    HW254341   6.511   0.614   7.176 -0.0744  0.9630  1.9518
17634SOL     OW54342   0.061   3.546   1.528  0.1505 -0.9585  0.0263
17634SOL    HW154343  -0.024   3.589   1.536 -0.0629 -1.7002  2.4975
17634SOL    HW254344   0.114   3.609   1.479 -0.7795  1.2170  1.6010
17635SOL     OW54345   3.795   4.580   1.824  0.2785 -0.0802 -0.2195
17635SOL    HW154346   3.815   4.505   1.880  0.1375 -0.6508 -0.9155
17635SOL    HW254347   3.782   4.542   1.737  0.9159  0.8328 -0.7337
17636SOL     OW54348   3.020   0.119  11.128  0.0580 -0.0733 -0.4131
17636SOL    HW154349   2.994   0.192  11.184 -0.6863 -0.2611 -0.5090
17636SOL    HW254350   3.021   0.156  11.040  1.6461  0.3370 -0.2656
17637SOL     OW54351   3.252   2.800   9.245  0.5339  0.6579 -0.5971
17637SOL    HW154352   3.238   2.861   9.317  1.2730  0.9377 -0.6745
17637SOL    HW254353   3.271   2.856   9.170  2.1264  0.3507 -0.4708
17638SOL     OW54354   3.954   6.552   2.836  0.5604 -0.3052 -0.3912
17638SOL    HW154355   3.917   6.503   2.763  0.4968  2.3915 -2.3103
17638SOL    HW254356   4.003   6.487   2.887 -0.7134 -2.5662 -1.8975
17639SOL     OW54357   0.164   6.767   8.280 -0.2011 -0.8604  0.2141
17639SOL    HW154358   0.072   6.738   8.284  0.3471 -2.6151  1.6772
17639SOL    HW254359   0.159   6.862   8.285 -1.9983 -0.8068 -1.4104
17640SOL     OW54360   7.053   6.916   2.648  0.8850  0.1041  0.5986
17640SOL    HW154361   7.144   6.944   2.633  1.7043 -1.7737  1.6707
17640SOL    HW254362   7.061   6.824   2.673 -1.4636 -0.5671 -0.8475
17641SOL     OW54363   7.632   6.374  11.422 -0.1204 -0.3470 -0.0651
17641SOL    HW154364   7.537   6.381  11.433  0.0548  0.6135  1.0758
17641SOL    HW254365   7.648   6.281  11.409 -1.1125 -0.6830  0.9614
17642SOL     OW54366   4.659   0.250   0.852 -0.4978 -0.1940 -0.3687
17642SOL    HW154367   4.603   0.198   0.795 -1.6261 -0.4384  0.8957
17642SOL    HW254368   4.715   0.186   0.896 -0.8040 -0.1916  0.0326
17643SOL     OW54369   0.841   1.088   7.781 -0.8791  0.5908  0.2769
17643SOL    HW154370   0.765   1.034   7.761 -0.4647  0.3851 -0.8139
17643SOL    HW254371   0.837   1.101   7.875 -1.3846 -0.7483  0.4609
17644SOL     OW54372   1.526   7.152   7.129 -0.3268 -0.5010  0.3369
17644SOL    HW154373   1.528   7.181   7.038  1.7001 -0.6139  0.2921
17644SOL    HW254374   1.584   7.076   7.131 -1.7448 -1.6144  1.4040
17645SOL     OW54375   3.674   3.413   4.285  0.0614  0.4585  0.2670
17645SOL    HW154376   3.632   3.496   4.309  0.7373  0.6266  0.9181
17645SOL    HW254377   3.704   3.377   4.369 -0.5541 -0.6278  0.0325
17646SOL     OW54378   6.926   6.702   5.675  0.1355  0.0520 -0.0834
17646SOL    HW154379   6.882   6.649   5.608  2.2428 -2.8289  0.6278
17646SOL    HW254380   6.929   6.790   5.637 -1.1057 -0.8680 -2.5730
17647SOL     OW54381   4.116   6.515   3.198  0.2076 -0.1372  0.6992
17647SOL    HW154382   4.171   6.437   3.194 -1.7832 -1.5965 -0.0808
17647SOL    HW254383   4.170   6.585   3.162  1.5366 -1.4770 -0.0233
17648SOL     OW54384   4.581   7.780  10.442 -0.2364 -0.3012 -0.2711
17648SOL    HW154385   4.540   7.708  10.489  0.9131 -1.6854 -1.3137
17648SOL    HW254386   4.658   7.803  10.494 -1.5393  1.4728  1.0282
17649SOL     OW54387   6.231   3.461   1.945  0.5396  0.7921  0.2561
17649SOL    HW154388   6.280   3.481   1.865 -2.2231 -1.4692 -2.2382
17649SOL    HW254389   6.231   3.366   1.950 -2.2761  0.7285  0.8519
17650SOL     OW54390   2.506   1.856   0.296 -0.2766 -0.0451 -0.1169
17650SOL    HW154391   2.597   1.869   0.270  0.2568 -0.6242  1.3446
17650SOL    HW254392   2.488   1.764   0.279 -0.2985 -0.1433  0.4180
17651SOL     OW54393   0.353   7.789   7.167 -0.1790 -0.1618  0.0289
17651SOL    HW154394   0.387   7.855   7.227  2.5379  0.0089 -1.5433
17651SOL    HW254395   0.298   7.838   7.105  0.6386  0.4206 -0.2529
17652SOL     OW54396   4.557   4.457   0.644  0.6697 -0.2000  0.0373
17652SOL    HW154397   4.479   4.430   0.595 -0.4122  2.6055 -0.0183
17652SOL    HW254398   4.571   4.387   0.707 -1.3565 -1.2491 -0.5652
17653SOL     OW54399   6.445   5.337   3.986 -0.0492  0.0330 -0.4113
17653SOL    HW154400   6.390   5.321   4.062 -0.6149 -0.7785 -0.9854
17653SOL    HW254401   6.397   5.402   3.935  0.3245  0.5678 -0.0985
17654SOL     OW54402   0.599   5.351   4.839 -0.1363  0.3039 -0.1020
17654SOL    HW154403   0.557   5.273   4.802  2.3799 -0.1705 -2.2863
17654SOL    HW254404   0.570   5.423   4.783  0.0887  0.3694 -0.1364
17655SOL     OW54405   6.389   2.289   0.138 -0.2010  0.3506 -0.1054
17655SOL    HW154406   6.425   2.201   0.144 -0.9852 -0.0627 -1.1182
17655SOL    HW254407   6.463   2.345   0.116  1.3537  0.8063  4.9948
17656SOL     OW54408   2.374   1.541   4.085 -0.0617  0.4029 -0.4240
17656SOL    HW154409   2.444   1.476   4.081  1.0301  1.5680 -1.1686
17656SOL    HW254410   2.396   1.604   4.016 -1.7579  0.9111 -0.5539
17657SOL     OW54411   0.322   6.305   0.425 -0.8311 -0.4106  0.4748
17657SOL    HW154412   0.256   6.300   0.494 -1.2115  0.4290  0.1769
17657SOL    HW254413   0.296   6.380   0.372 -0.2840 -0.7728 -0.3188
17658SOL     OW54414   6.270   7.268   5.490 -0.0878  0.1401  0.2427
17658SOL    HW154415   6.249   7.182   5.527  0.3930  0.7960  2.1599
17658SOL    HW254416   6.323   7.248   5.412 -0.6972 -1.3013  0.1650
17659SOL     OW54417   4.537   6.538   7.766  0.4578 -0.1050  0.1040
17659SOL    HW154418   4.621   6.515   7.726  1.0759  1.1361  0.6388
17659SOL    HW254419   4.477   6.546   7.692  0.5245 -2.0150 -0.2136
17660SOL     OW54420   2.445   5.504   4.047 -0.3752 -0.4167 -0.4157
17660SOL    HW154421   2.406   5.501   3.960 -0.8393 -0.0547 -0.2265
17660SOL    HW254422   2.505   5.578   4.044  1.3030 -1.7444 -1.1030
17661SOL     OW54423   3.742   6.113  12.358  0.0281 -0.2587  0.6424
17661SOL    HW154424   3.733   6.053  12.284  1.2055  1.0606 -0.6407
17661SOL    HW254425   3.683   6.078  12.425 -0.1390 -2.1953 -0.4480
17662SOL     OW54426   1.608   3.302  11.344 -0.0714 -0.4728 -0.0931
17662SOL    HW154427   1.595   3.376  11.402  0.7040  1.1582 -1.8785
17662SOL    HW254428   1.527   3.295  11.294  0.4652  0.3413 -1.1264
17663SOL     OW54429   4.701   0.892   9.214  0.8189 -0.1827 -0.0676
17663SOL    HW154430   4.760   0.895   9.289 -1.5383 -0.1797  1.9186
17663SOL    HW254431   4.658   0.978   9.214 -0.0974 -0.6240 -0.6635
17664SOL     OW54432   1.470   7.596   6.476 -0.2729  0.2979 -0.4510
17664SOL    HW154433   1.400   7.551   6.524 -0.8975 -0.1180 -1.7107
17664SOL    HW254434   1.424   7.665   6.427  0.5624  1.7876  0.7877
17665SOL     OW54435   5.184   3.690   9.335  0.4054  0.0199 -0.0509
17665SOL    HW154436   5.143   3.633   9.270 -1.0684 -2.9453  3.1863
17665SOL    HW254437   5.275   3.659   9.338  1.0132  1.4561 -1.8889
17666SOL     OW54438   2.533   6.162   4.297  0.0129 -0.1664  0.0465
17666SOL    HW154439   2.547   6.090   4.236 -0.8089 -0.0863 -0.2408
17666SOL    HW254440   2.474   6.222   4.252  0.6600  0.6757  0.2999
17667SOL     OW54441   6.619   5.031   2.039  0.7683 -0.1493 -0.1063
17667SOL    HW154442   6.700   4.998   2.078  1.2960  1.4242  0.2257
17667SOL    HW254443   6.639   5.040   1.946  1.6348  1.8948  0.2168
17668SOL     OW54444   7.347   6.200   9.972  0.0021  0.2527  0.4445
17668SOL    HW154445   7.279   6.264   9.953 -0.7115  0.0915  2.2599
17668SOL    HW254446   7.311   6.117   9.943  0.5016  0.4933 -0.9444
17669SOL     OW54447   4.746   6.466   4.760 -0.7740  0.4567  0.1873
17669SOL    HW154448   4.665   6.430   4.724 -0.5220  1.2237 -1.2419
17669SOL    HW254449   4.811   6.454   4.690  0.1639  0.5518  1.0105
17670SOL     OW54450   7.671   1.684   6.855 -0.3886 -0.1126 -0.1326
17670SOL    HW154451   7.579   1.663   6.872 -0.3937 -0.2914 -0.3729
17670SOL    HW254452   7.705   1.714   6.939 -1.0857  1.5277 -0.3933
17671SOL     OW54453   5.326   5.009   4.397  0.0405 -0.5655  0.2056
17671SOL    HW154454   5.409   4.966   4.374  0.5798  0.1970  0.6845
17671SOL    HW254455   5.352   5.089   4.442 -0.9613 -0.0862 -0.0390
17672SOL     OW54456   7.640   1.334   7.723 -0.7623 -0.0324  0.1083
17672SOL    HW154457   7.615   1.332   7.816  1.2804  0.5800  0.7421
17672SOL    HW254458   7.658   1.243   7.701 -0.8505 -0.1359  0.4486
17673SOL     OW54459   6.946   7.614   8.071  0.3945  0.6820  0.2759
17673SOL    HW154460   6.888   7.618   7.995 -0.1643  0.4016  0.6801
17673SOL    HW254461   7.007   7.686   8.058 -1.3987  2.4141  0.9454
17674SOL     OW54462   6.469   1.893  11.532  0.7485 -0.4274 -0.4676
17674SOL    HW154463   6.420   1.812  11.519 -0.0059 -0.1503  0.4927
17674SOL    HW254464   6.452   1.917  11.623  1.4374  0.5033 -0.5614
17675SOL     OW54465   4.758   5.475   2.165  0.5158 -0.1362 -0.0746
17675SOL    HW154466   4.680   5.420   2.169  0.7195 -0.4728 -0.6594
17675SOL    HW254467   4.823   5.426   2.216  0.2584  0.3061  0.7021
17676SOL     OW54468   2.759   0.719  12.393 -0.0487  0.2251 -0.0345
17676SOL    HW154469   2.709   0.768  12.457 -1.0157 -1.5601  0.6501
17676SOL    HW254470   2.825   0.672  12.444  0.8424  0.7491 -0.6638
17677SOL     OW54471   5.789   6.792  10.651  0.2536  0.1680 -0.6490
17677SOL    HW154472   5.762   6.877  10.688 -0.4458 -0.5725  0.6030
17677SOL    HW254473   5.707   6.750  10.627  0.5451 -0.4759 -0.5191
17678SOL     OW54474   3.245   7.666  11.909 -0.3215 -0.4774  0.0086
17678SOL    HW154475   3.324   7.622  11.876  1.1223  2.2136 -0.4573
17678SOL    HW254476   3.197   7.691  11.830 -1.1922 -1.3120  0.2660
17679SOL     OW54477   4.783   4.302   2.016  0.0972 -0.1189  0.7646
17679SOL    HW154478   4.858   4.249   1.987  1.3189  1.3394  1.1605
17679SOL    HW254479   4.758   4.353   1.939 -0.1734 -0.2389  0.7717
17680SOL     OW54480   0.669   2.322   4.875  0.3257  0.5802 -0.1783
17680SOL    HW154481   0.634   2.236   4.899 -0.1812  0.7676 -0.2430
17680SOL    HW254482   0.607   2.357   4.811  0.1255  1.3094  0.4031
17681SOL     OW54483   1.449   2.528   0.992 -0.1566  0.1940  0.0047
17681SOL    HW154484   1.369   2.580   0.999 -1.6128 -1.9669  0.3504
17681SOL    HW254485   1.518   2.585   1.024 -1.3635  2.4884 -1.2450
17682SOL     OW54486   0.121   0.302   7.349  0.0765 -0.4966 -0.6606
17682SOL    HW154487   0.118   0.352   7.430  0.6251 -2.1935  0.4565
17682SOL    HW254488   0.146   0.365   7.282 -1.1034  1.0971  0.3465
17683SOL     OW54489   1.306   0.747   1.779 -0.3023 -0.1320  0.3272
17683SOL    HW154490   1.255   0.767   1.701 -0.6946  0.1336  0.6454
17683SOL    HW254491   1.371   0.683   1.751 -1.9443 -1.8608  0.3160
17684SOL     OW54492   3.328   1.084  11.207  0.7350  0.0193  0.0861
17684SOL    HW154493   3.295   1.008  11.160 -0.9391 -0.2127  1.5509
17684SOL    HW254494   3.419   1.062  11.227  0.2375 -1.6650  0.6184
17685SOL     OW54495   4.483   7.321   9.137  0.4738 -0.8262  0.0034
17685SOL    HW154496   4.533   7.376   9.077  1.3036 -0.6797  0.8044
17685SOL    HW254497   4.392   7.338   9.115  0.6395  1.9448  1.1418
17686SOL     OW54498   1.275   7.080   3.990 -1.0178  0.0010  0.1422
17686SOL    HW154499   1.220   7.144   4.035 -0.2962  1.7237 -1.2925
17686SOL    HW254500   1.279   7.112   3.899 -0.4070 -1.9513 -0.5608
17687SOL     OW54501   0.572   0.684   5.452 -0.3458 -0.2702 -0.1005
17687SOL    HW154502   0.629   0.758   5.431 -2.2228  1.2266 -0.2545
17687SOL    HW254503   0.566   0.634   5.371  0.6323 -0.3941 -0.1069
17688SOL     OW54504   7.398   4.836   2.243  0.1175 -0.6567 -0.1629
17688SOL    HW154505   7.391   4.785   2.323  0.8431 -0.6944 -0.1126
17688SOL    HW254506   7.312   4.829   2.202 -0.0280 -1.2760  0.2311
17689SOL     OW54507   2.602   5.024   6.186  0.8742  0.2926  0.7180
17689SOL    HW154508   2.548   5.029   6.265  1.3433 -1.0919  1.1668
17689SOL    HW254509   2.667   5.093   6.197  0.6098  0.4526  1.3034
17690SOL     OW54510   7.765   0.953   6.420 -0.6283  0.3517  0.2648
17690SOL    HW154511   7.671   0.936   6.413 -0.9252  1.9375 -0.1640
17690SOL    HW254512   7.777   0.978   6.512 -0.3234 -1.3727  0.7121
17691SOL     OW54513   6.184   0.778   1.537 -0.5062  0.4514 -0.7228
17691SOL    HW154514   6.230   0.841   1.482 -0.6438  2.6067  1.4554
17691SOL    HW254515   6.187   0.817   1.625  0.2544 -3.0625  0.9927
17692SOL     OW54516   6.129   6.498  10.869 -0.3403 -0.1847  0.1504
17692SOL    HW154517   6.071   6.507  10.792  1.4150  0.0076 -1.2124
17692SOL    HW254518   6.217   6.494  10.832  0.5757  0.0367  2.1984
17693SOL     OW54519   1.083   3.570   4.145  0.8685  0.4598  0.4308
17693SOL    HW154520   1.102   3.584   4.052 -0.0558  1.2886  0.3440
17693SOL    HW254521   1.056   3.478   4.150  2.2897  0.0142  0.1327
17694SOL     OW54522   5.822   6.082   7.007  0.0980  0.8015 -0.1811
17694SOL    HW154523   5.795   5.997   7.040 -0.4453  1.0105 -0.0781
17694SOL    HW254524   5.824   6.139   7.084  0.9625  0.7680 -0.1611
17695SOL     OW54525   0.268   1.675   3.901  0.0414 -0.1663 -0.5022
17695SOL    HW154526   0.323   1.747   3.870  0.7506 -0.4982 -0.0444
17695SOL    HW254527   0.286   1.669   3.995 -0.3851 -0.6133 -0.4437
17696SOL     OW54528   0.608   1.098  10.690  0.3664  0.1092 -0.1852
17696SOL    HW154529   0.577   1.029  10.750  0.0682 -0.5592 -1.0903
17696SOL    HW254530   0.661   1.051  10.626  0.1051  0.7183 -0.8497
17697SOL     OW54531   5.625   6.874   0.115  0.3153 -0.2912  0.2801
17697SOL    HW154532   5.706   6.879   0.165  0.2242 -0.3833  0.4379
17697SOL    HW254533   5.567   6.938   0.156  0.1486 -0.5562  0.4647
17698SOL     OW54534   7.527   3.090   7.282 -0.2072 -0.3391  0.1706
17698SOL    HW154535   7.593   3.051   7.340 -0.6459 -0.1190  0.8332
17698SOL    HW254536   7.467   3.018   7.262  0.6910 -0.7629 -1.1451
17699SOL     OW54537   4.906   1.779   7.107 -0.3066 -0.5216 -0.2789
17699SOL    HW154538   4.927   1.756   7.016  2.7114  1.0905 -0.1283
17699SOL    HW254539   4.959   1.718   7.158 -0.1651  0.1128  0.3338
17700SOL     OW54540   6.659   2.310   0.700  0.2937  0.2943 -0.0925
17700SOL    HW154541   6.690   2.399   0.684 -0.8035  1.0923  1.9110
17700SOL    HW254542   6.589   2.297   0.636  1.5807  0.1738 -1.5451
17701SOL     OW54543   5.158   2.249   3.895  0.1337  0.3750  0.0960
17701SOL    HW154544   5.206   2.184   3.843  0.4296  0.0303  0.7917
17701SOL    HW254545   5.073   2.256   3.852  0.7607  0.9586 -1.1425
17702SOL     OW54546   6.634   0.352   6.020 -0.0636 -0.4164  0.3164
17702SOL    HW154547   6.562   0.407   6.051 -0.9679 -1.8947  0.9852
17702SOL    HW254548   6.593   0.293   5.956  0.4530 -1.5402  0.9965
17703SOL     OW54549   1.535   0.888   7.091 -0.2800 -0.0342 -0.0551
17703SOL    HW154550   1.628   0.898   7.110 -0.2115  2.5049 -1.3345
17703SOL    HW254551   1.495   0.968   7.125 -2.0298 -1.0672  0.4470
17704SOL     OW54552   1.832   1.086   3.777  0.0535 -0.2866 -0.0633
17704SOL    HW154553   1.837   1.181   3.772 -2.0935 -0.2089 -1.7112
17704SOL    HW254554   1.903   1.062   3.837  0.0338  2.3993  1.1747
17705SOL     OW54555   2.741   4.461  10.691  0.0171 -0.2216  0.4147
17705SOL    HW154556   2.687   4.514  10.749  0.0211 -0.4992  0.6779
17705SOL    HW254557   2.738   4.373  10.730 -3.6193 -1.5901 -2.3252
17706SOL     OW54558   3.635   3.347   0.044 -0.6819 -0.1812  0.1879
17706SOL    HW154559   3.646   3.292  -0.034  0.8583 -0.0406  0.2582
17706SOL    HW254560   3.618   3.285   0.115 -1.8062 -0.3318 -0.2028
17707SOL     OW54561   2.749   2.930   2.222  0.0545 -0.0545  0.1234
17707SOL    HW154562   2.703   2.852   2.254 -2.0542 -0.0651 -2.5411
17707SOL    HW254563   2.700   3.004   2.257 -1.0605 -0.0524 -1.3334
17708SOL     OW54564   3.626   0.691  12.135  0.0683  0.2250  0.1134
17708SOL    HW154565   3.605   0.682  12.228 -0.2977 -0.4651 -0.0268
17708SOL    HW254566   3.544   0.669  12.090  0.6880 -1.1661 -0.4049
17709SOL     OW54567   3.680   1.537  11.813  0.4641  0.3966  0.2241
17709SOL    HW154568   3.689   1.442  11.820  2.2961  0.4254 -0.9086
17709SOL    HW254569   3.647   1.552  11.724  0.3157  0.8244  0.3490
17710SOL     OW54570   5.639   6.332   8.680 -0.6452 -0.3840 -0.3385
17710SOL    HW154571   5.712   6.377   8.637 -0.9072 -0.3301 -0.7331
17710SOL    HW254572   5.626   6.380   8.762  0.0946 -0.7116 -0.0144
17711SOL     OW54573   2.797   6.143   3.164 -0.2862  0.4285  0.3308
17711SOL    HW154574   2.733   6.193   3.214 -1.4354 -0.4548 -0.2064
17711SOL    HW254575   2.766   6.052   3.170  0.7686  0.0196 -0.1629
17712SOL     OW54576   6.699   7.968   8.522  0.0037 -0.3150  0.0432
17712SOL    HW154577   6.750   8.042   8.491 -1.4180 -0.4245 -2.9716
17712SOL    HW254578   6.706   7.971   8.617  0.7637  3.0955 -0.0166
17713SOL     OW54579   7.404   7.375   6.287  0.1838  0.0556 -0.4296
17713SOL    HW154580   7.496   7.393   6.304 -0.2690  2.8031 -0.4623
17713SOL    HW254581   7.392   7.398   6.195 -0.3273 -1.3829 -0.7499
17714SOL     OW54582   4.607   5.944   5.811 -0.3373 -0.8018 -0.2291
17714SOL    HW154583   4.572   5.919   5.726 -0.2912 -1.0056 -0.1898
17714SOL    HW254584   4.571   6.031   5.828  0.3066 -0.4123 -0.8222
17715SOL     OW54585   0.517   6.574   3.679 -0.1113  0.1536 -0.1694
17715SOL    HW154586   0.429   6.567   3.718 -1.0056  1.7352 -1.7383
17715SOL    HW254587   0.501   6.610   3.591  2.1260  0.5321 -0.4737
17716SOL     OW54588   1.407   5.068   2.422 -0.1682 -0.2580  0.1422
17716SOL    HW154589   1.430   5.153   2.386  0.7353 -1.1712 -1.5742
17716SOL    HW254590   1.315   5.055   2.396 -0.2003  0.0483  0.1058
17717SOL     OW54591   2.001   2.320   6.501 -0.0794  0.3234  0.0956
17717SOL    HW154592   1.968   2.400   6.460 -2.1908 -1.4119 -1.8754
17717SOL    HW254593   1.940   2.303   6.573  0.2335  0.3208  0.3669
17718SOL     OW54594   2.923   1.727   6.563 -0.5874  0.0409  0.6898
17718SOL    HW154595   2.885   1.696   6.481 -0.3474 -0.4891  0.7717
17718SOL    HW254596   2.932   1.822   6.552  1.7371 -0.2817 -0.8773
17719SOL     OW54597   0.443   1.516  11.478  0.1659 -0.1467 -0.1279
17719SOL    HW154598   0.451   1.457  11.403 -2.7626 -1.4492  0.4747
17719SOL    HW254599   0.375   1.578  11.452 -1.2649 -0.9326  1.5792
17720SOL     OW54600   2.456   2.162   7.647  0.2311 -1.0755  0.0323
17720SOL    HW154601   2.515   2.219   7.597  0.6374 -2.4724 -1.1549
17720SOL    HW254602   2.402   2.222   7.698 -0.0069  0.4314 -1.8759
17721SOL     OW54603   0.382   4.389   0.619 -0.7386  0.1715 -0.3725
17721SOL    HW154604   0.470   4.370   0.586 -1.0187 -0.4347 -0.7991
17721SOL    HW254605   0.382   4.483   0.635  0.5359 -0.0601  1.2985
17722SOL     OW54606   7.577   1.264   6.378  0.4193 -0.3427 -0.1642
17722SOL    HW154607   7.669   1.278   6.356  0.6255 -0.9788  0.2551
17722SOL    HW254608   7.540   1.219   6.302  0.3547  0.2380 -0.4860
17723SOL     OW54609   6.167   2.633   0.637  0.3215 -0.4505  0.2441
17723SOL    HW154610   6.103   2.606   0.702 -1.7654  0.3376 -1.3770
17723SOL    HW254611   6.216   2.553   0.617 -2.5357 -2.0040 -0.9985
17724SOL     OW54612   6.318   0.687   0.788 -0.3693  0.6169  0.1697
17724SOL    HW154613   6.229   0.652   0.783  0.9661 -2.9859 -0.8268
17724SOL    HW254614   6.337   0.688   0.882 -0.5916 -1.1310  0.2628
17725SOL     OW54615   3.987   5.993   4.608 -0.0077  0.0235 -0.3460
17725SOL    HW154616   4.026   6.038   4.534 -2.2493  0.5955 -1.2504
17725SOL    HW254617   4.011   6.046   4.684 -1.4892  2.1027 -1.2347
17726SOL     OW54618   4.977   0.503   2.944  0.1607  0.1189  0.3828
17726SOL    HW154619   5.049   0.467   2.892 -0.7755  1.3891 -1.9421
17726SOL    HW254620   4.902   0.448   2.923 -0.4375  1.1850 -0.3727
17727SOL     OW54621   7.623   1.948  11.560 -0.3862 -0.1318 -0.3956
17727SOL    HW154622   7.634   1.967  11.653  1.7221  1.8363 -0.9530
17727SOL    HW254623   7.554   2.008  11.531  0.8661  1.2767 -0.5882
17728SOL     OW54624   1.083   3.610   5.821  0.1204 -0.1096  0.1867
17728SOL    HW154625   1.029   3.581   5.894 -0.8002 -0.8555 -0.7562
17728SOL    HW254626   1.033   3.585   5.743  1.7287 -0.6322 -0.7194
17729SOL     OW54627   6.449   5.737   8.005 -0.2945  0.0170 -0.3646
17729SOL    HW154628   6.532   5.689   8.011  0.5143  1.2308 -1.2111
17729SOL    HW254629   6.475   5.830   8.006 -1.6281  0.4230 -0.8135
17730SOL     OW54630   3.933   0.139  10.909 -0.0514  0.3612  0.1904
17730SOL    HW154631   3.871   0.213  10.916  1.8530  2.0099  0.4442
17730SOL    HW254632   3.955   0.136  10.816  0.4803  0.6470  0.3038
17731SOL     OW54633   6.117   6.191   5.519  0.7853  0.0683 -0.2250
17731SOL    HW154634   6.033   6.223   5.486  1.5516  1.9170 -0.5020
17731SOL    HW254635   6.110   6.197   5.614  0.3523 -0.5083 -0.2143
17732SOL     OW54636   0.588   0.062   6.022  0.0480 -0.2792 -0.1413
17732SOL    HW154637   0.596   0.027   5.934 -0.4999  0.0606 -0.3346
17732SOL    HW254638   0.678   0.067   6.055  0.3366  0.3597 -0.9875
17733SOL     OW54639   4.298   4.460   4.685  0.3114 -0.1056  0.1931
17733SOL    HW154640   4.378   4.461   4.738  1.2555 -3.7683 -0.8464
17733SOL    HW254641   4.244   4.393   4.727 -0.9269  0.2445 -0.8130
17734SOL     OW54642   2.726   2.359   2.951 -0.0871  0.5049  0.0481
17734SOL    HW154643   2.754   2.323   2.866  0.6429  1.5187 -0.1641
17734SOL    HW254644   2.791   2.326   3.013  0.4768  1.2572 -0.1171
17735SOL     OW54645   2.102   6.753   2.361  0.3147 -0.5188 -0.4029
17735SOL    HW154646   2.196   6.744   2.375  0.1530 -1.7065 -0.0034
17735SOL    HW254647   2.085   6.707   2.278  0.4243  1.7622 -1.7814
17736SOL     OW54648   7.765   3.730  11.473  0.1398 -0.2204 -0.2558
17736SOL    HW154649   7.831   3.767  11.414  1.6808 -2.4670 -0.0615
17736SOL    HW254650   7.761   3.792  11.547  1.7961  0.1535 -0.4443
17737SOL     OW54651   5.853   7.753   4.245 -0.0813  0.1226 -0.3089
17737SOL    HW154652   5.771   7.776   4.288 -0.3158  0.7965 -1.0899
17737SOL    HW254653   5.904   7.834   4.246  0.8426 -0.4478  0.7284
17738SOL     OW54654   4.967   1.057   8.611 -0.8743  0.6103 -0.9291
17738SOL    HW154655   4.978   1.014   8.696  0.6356 -0.5704 -1.6662
17738SOL    HW254656   4.979   1.150   8.629  2.0109  0.1943 -0.1635
17739SOL     OW54657   2.779   7.232   8.082  0.2047  0.3562  0.2571
17739SOL    HW154658   2.803   7.147   8.048  0.8391  0.5938  0.0996
17739SOL    HW254659   2.731   7.274   8.011 -0.4303 -0.0053  0.4666
17740SOL     OW54660   6.372   5.965   2.917  0.0120  0.2348  0.0705
17740SOL    HW154661   6.405   5.944   3.005  0.3375  2.5185  0.5475
17740SOL    HW254662   6.287   5.922   2.913  1.5801 -3.2194 -0.0340
17741SOL     OW54663   5.958   6.908   2.265 -0.2304 -0.2221 -0.2908
17741SOL    HW154664   6.022   6.896   2.195  2.9184 -0.3098  2.3542
17741SOL    HW254665   5.938   6.820   2.296 -0.8657 -0.1285 -0.4097
17742SOL     OW54666   3.036   5.488   0.960 -0.2101  0.0777 -0.2875
17742SOL    HW154667   3.000   5.486   0.872 -0.8879  1.5290 -0.0635
17742SOL    HW254668   3.063   5.398   0.977  0.3330 -0.1398 -2.1262
17743SOL     OW54669   7.406   6.590   2.682 -0.1334 -0.0727 -0.0260
17743SOL    HW154670   7.483   6.568   2.734  1.1667  1.3194 -1.2706
17743SOL    HW254671   7.387   6.512   2.631  2.3524  0.4870 -1.9432
17744SOL     OW54672   7.830   1.509   5.929 -0.2439  0.2315  0.0757
17744SOL    HW154673   7.828   1.603   5.950 -0.4903  0.3290 -0.3695
17744SOL    HW254674   7.753   1.473   5.972  1.1664 -0.2470  2.3834
17745SOL     OW54675   5.170   3.517   5.980  0.1405 -0.5243  0.0434
17745SOL    HW154676   5.100   3.490   6.039 -1.3058 -2.4093 -2.3204
17745SOL    HW254677   5.160   3.459   5.904 -0.4211  3.8701 -3.6560
17746SOL     OW54678   1.784   0.095   5.582  0.2350  0.0558  0.6100
17746SOL    HW154679   1.829   0.165   5.630 -1.2085  0.9554  0.7078
17746SOL    HW254680   1.833   0.086   5.500  0.0750  1.6328  0.3189
17747SOL     OW54681   7.025   3.695  12.409  0.4997  0.2245  0.2863
17747SOL    HW154682   7.038   3.767  12.470  1.0849 -0.3630  0.8664
17747SOL    HW254683   7.097   3.635  12.426  0.2085 -0.3440 -0.4179
17748SOL     OW54684   3.689   1.754   8.650  0.8356 -0.1863  0.0861
17748SOL    HW154685   3.705   1.813   8.578 -2.2369  0.3878 -0.2680
17748SOL    HW254686   3.654   1.810   8.720 -2.3744 -1.4289 -0.3432
17749SOL     OW54687   4.031   1.127   3.479 -0.1909  0.4359  0.0786
17749SOL    HW154688   3.977   1.201   3.504 -0.5151  0.4360 -0.5887
17749SOL    HW254689   4.093   1.163   3.415  1.1853  0.6260  1.4687
17750SOL     OW54690   1.193   2.162  11.709 -0.3215 -0.4835 -0.6830
17750SOL    HW154691   1.287   2.154  11.722 -0.2628  0.2803 -0.6064
17750SOL    HW254692   1.184   2.219  11.633 -0.7277  0.2794 -0.0767
17751SOL     OW54693   2.881   5.015   1.772 -0.4773  0.1615 -0.6493
17751SOL    HW154694   2.875   5.027   1.677  0.9603 -0.2627 -0.8241
17751SOL    HW254695   2.911   4.924   1.782  0.8651  0.6664  0.1315
17752SOL     OW54696   6.387   5.752  11.674 -0.0010 -0.4672  0.0766
17752SOL    HW154697   6.456   5.686  11.678  0.6456 -0.0817 -2.6246
17752SOL    HW254698   6.433   5.835  11.658 -0.9782  0.1327  0.2352
17753SOL     OW54699   0.918   1.619   0.889  0.2611 -0.0760 -0.3280
17753SOL    HW154700   0.985   1.608   0.956  1.5831  0.9136 -1.4284
17753SOL    HW254701   0.952   1.688   0.832 -2.4262  1.6481 -0.0505
17754SOL     OW54702   0.956   4.066   5.726  0.3599  0.1622 -0.1685
17754SOL    HW154703   0.917   4.056   5.639  2.3732 -1.5465 -0.9604
17754SOL    HW254704   0.909   4.002   5.780  1.7537 -1.7041 -1.0548
17755SOL     OW54705   5.276   2.668   3.415  0.4311  0.0981 -0.0306
17755SOL    HW154706   5.190   2.704   3.392  0.1659 -1.4929 -1.8835
17755SOL    HW254707   5.274   2.660   3.510 -1.3085  0.5027  0.0060
17756SOL     OW54708   4.274   7.481  10.859 -0.3527  0.2070  0.1797
17756SOL    HW154709   4.362   7.504  10.828 -0.1208 -1.6460 -0.6933
17756SOL    HW254710   4.285   7.466  10.953  0.3260 -0.1992  0.0453
17757SOL     OW54711   6.026   2.045  11.234  0.1633  0.1595  0.3510
17757SOL    HW154712   6.110   1.999  11.239  0.2308  0.0697 -1.1575
17757SOL    HW254713   5.992   2.024  11.147 -0.4215  1.9034  0.1226
17758SOL     OW54714   7.452   2.525   5.794 -1.1090  0.0469 -0.1707
17758SOL    HW154715   7.532   2.575   5.776  0.5764 -2.1953  0.6041
17758SOL    HW254716   7.453   2.511   5.888 -2.4573  0.0097 -0.1511
17759SOL     OW54717   6.912   1.967   9.121 -0.0038  0.3775  0.1669
17759SOL    HW154718   6.936   2.017   9.043 -0.7400  0.3773 -0.0591
17759SOL    HW254719   6.837   2.013   9.158 -1.1406 -0.9306 -0.4411
17760SOL     OW54720   5.471   7.453   2.215 -0.4481 -0.2940  0.0674
17760SOL    HW154721   5.385   7.414   2.201 -0.9269  0.7562  0.0391
17760SOL    HW254722   5.489   7.440   2.308 -1.1175  0.4287  0.3025
17761SOL     OW54723   7.618   5.939   4.221  0.1327 -0.4218  0.3101
17761SOL    HW154724   7.643   5.867   4.164 -0.4470 -0.6872  0.3758
17761SOL    HW254725   7.600   6.012   4.162  0.2620 -0.4742  0.2070
17762SOL     OW54726   7.744   3.783   5.845  0.3856  0.5466  0.2113
17762SOL    HW154727   7.815   3.843   5.821  1.4949 -1.4041 -1.7293
17762SOL    HW254728   7.672   3.807   5.787  0.8691 -0.0542 -0.6489
17763SOL     OW54729   1.972   6.551   3.179 -0.4789  0.0388  0.2023
17763SOL    HW154730   1.927   6.604   3.113 -0.0234 -0.2132 -0.3211
17763SOL    HW254731   1.921   6.564   3.259 -1.7135 -0.5530 -0.4624
17764SOL     OW54732   2.960   0.776  11.065  0.3546  0.5465 -0.5340
17764SOL    HW154733   2.960   0.869  11.086  0.0816  0.6726 -1.0802
17764SOL    HW254734   2.970   0.732  11.150 -0.1906  1.0556 -0.2024
17765SOL     OW54735   5.892   1.016   5.696  0.6067  0.0806  0.0551
17765SOL    HW154736   5.906   1.098   5.744 -0.2114  0.9375 -1.1289
17765SOL    HW254737   5.830   0.967   5.750  0.1780  0.7685  0.2023
17766SOL     OW54738   6.832   6.296   5.838  0.0008  0.5843  0.1726
17766SOL    HW154739   6.752   6.343   5.859 -1.8493 -1.8558 -0.9452
17766SOL    HW254740   6.824   6.275   5.745  2.3054  0.8437 -0.1559
17767SOL     OW54741   6.265   0.215   6.033 -0.0523 -0.2160  0.2998
17767SOL    HW154742   6.225   0.171   5.958 -5.7354  2.0217  1.5512
17767SOL    HW254743   6.270   0.307   6.008 -1.8971  0.5519  2.4082
17768SOL     OW54744   2.777   2.916   2.929 -0.5458 -0.0335 -0.1056
17768SOL    HW154745   2.869   2.915   2.958  0.2429  0.7489 -2.3948
17768SOL    HW254746   2.772   2.846   2.864 -1.4879  0.1858 -0.2797
17769SOL     OW54747   7.714   5.073  12.396 -0.2664  0.5277 -0.0954
17769SOL    HW154748   7.703   5.018  12.318  1.5628  1.5708 -1.1384
17769SOL    HW254749   7.672   5.156  12.373  1.6023  1.3752 -0.6138
17770SOL     OW54750   2.719   3.317   3.332 -0.0037  0.6180  0.0753
17770SOL    HW154751   2.666   3.387   3.371 -1.1084  0.5115 -1.1690
17770SOL    HW254752   2.659   3.273   3.272  1.1532 -0.3548 -0.3918
17771SOL     OW54753   1.162   3.160   7.728  0.0583  0.1922  0.5535
17771SOL    HW154754   1.216   3.184   7.653  1.4063 -0.5350  1.2458
17771SOL    HW254755   1.072   3.161   7.695  0.4523  1.7090 -0.5642
17772SOL     OW54756   1.847   6.122   1.649 -0.2466 -0.3862 -0.3280
17772SOL    HW154757   1.769   6.169   1.679  0.3121  0.8326 -0.6879
17772SOL    HW254758   1.866   6.059   1.718  0.6714  1.9201  1.6849
17773SOL     OW54759   1.075   1.036   6.464  0.0311 -0.2936  0.2598
17773SOL    HW154760   1.105   0.957   6.508  1.4238  1.5912  3.0000
17773SOL    HW254761   1.031   1.087   6.533 -0.8817  1.2923 -1.4011
17774SOL     OW54762   2.280   5.237   0.679 -0.2065  0.1943  0.1467
17774SOL    HW154763   2.312   5.318   0.718 -1.3696  0.8823 -0.2771
17774SOL    HW254764   2.245   5.187   0.752  1.4282 -0.4083  0.5621
17775SOL     OW54765   3.596   3.923   7.233  0.1966 -0.3041  0.3582
17775SOL    HW154766   3.511   3.928   7.189  0.6002 -0.0045 -0.4212
17775SOL    HW254767   3.576   3.928   7.326 -0.7528 -1.8105  0.2528
17776SOL     OW54768   3.712   0.777   7.016  0.1596 -0.0328  0.9007
17776SOL    HW154769   3.713   0.852   7.076  0.7147 -0.7051  1.7574
17776SOL    HW254770   3.633   0.729   7.040 -0.6065  0.6501 -0.1548
17777SOL     OW54771   4.308   2.342   9.934 -0.1434 -0.1913 -0.2911
17777SOL    HW154772   4.231   2.396   9.953  0.1816  0.5470 -0.9903
17777SOL    HW254773   4.354   2.390   9.866  0.4891 -1.0596 -0.4927
17778SOL     OW54774   2.015   4.235   9.313 -0.1547 -0.7043  0.2648
17778SOL    HW154775   1.973   4.164   9.264  0.0185 -0.5020 -0.1908
17778SOL    HW254776   2.051   4.293   9.245  0.9981 -0.9488  0.6394
17779SOL     OW54777   3.387   3.434   6.133  0.1867 -0.6349 -0.0425
17779SOL    HW154778   3.403   3.528   6.124  0.0841 -0.6367 -0.2507
17779SOL    HW254779   3.449   3.393   6.071  0.6476 -0.7364  0.4781
17780SOL     OW54780   2.133   1.813   3.222 -0.0617 -0.1259  0.0640
17780SOL    HW154781   2.089   1.897   3.234  0.1486  0.1209 -0.8752
17780SOL    HW254782   2.155   1.809   3.129 -0.4278 -1.4011  0.0066
17781SOL     OW54783   5.367   4.385   8.220 -0.3283 -0.0264 -0.2122
17781SOL    HW154784   5.433   4.405   8.287 -0.6723  1.1864 -0.2094
17781SOL    HW254785   5.323   4.306   8.252  0.1062  0.0263  0.5441
17782SOL     OW54786   2.807   5.596  12.002 -0.5229 -0.2286  0.2887
17782SOL    HW154787   2.810   5.682  11.961 -1.8762  0.5950  1.7828
17782SOL    HW254788   2.778   5.536  11.933  0.3593  0.5154 -0.7416
17783SOL     OW54789   3.492   7.646  12.383 -0.5854 -0.0083 -1.1177
17783SOL    HW154790   3.475   7.558  12.348 -1.1692 -0.1873 -0.4134
17783SOL    HW254791   3.430   7.655  12.455 -0.0803  0.7373 -0.7681
17784SOL     OW54792   5.599   5.154   2.378  0.0979  0.1447 -0.1181
17784SOL    HW154793   5.635   5.136   2.291  1.6104 -3.5391  1.0622
17784SOL    HW254794   5.660   5.216   2.416 -1.0078  2.4317 -1.8354
17785SOL     OW54795   3.315   2.893   6.103 -0.1032 -0.0940  0.3773
17785SOL    HW154796   3.347   2.980   6.129  0.4262  0.5388 -2.1733
17785SOL    HW254797   3.236   2.911   6.052 -0.8503 -1.2635  1.0555
17786SOL     OW54798   6.247   7.930  10.443 -0.7120  0.0691 -0.3030
17786SOL    HW154799   6.231   7.914  10.350 -1.5976 -0.8154 -0.0059
17786SOL    HW254800   6.165   7.968  10.475 -1.0456 -1.2963  0.4983
17787SOL     OW54801   7.029   0.933   3.356 -0.1879  0.3093  0.1948
17787SOL    HW154802   6.978   0.862   3.395  0.4060  0.0847  0.5771
17787SOL    HW254803   6.980   1.012   3.376  0.5777  0.3222  2.2910
17788SOL     OW54804   0.677   4.642   2.660 -0.5308  0.5772  0.1116
17788SOL    HW154805   0.755   4.659   2.712 -0.4924  0.4107  0.1078
17788SOL    HW254806   0.683   4.703   2.587 -0.8644  1.1967  0.5971
17789SOL     OW54807   4.285   5.855   0.562  0.1597 -0.3483  0.7616
17789SOL    HW154808   4.303   5.792   0.631 -0.4528  0.1733  1.4110
17789SOL    HW254809   4.298   5.940   0.602  2.5150 -0.0234 -0.5252
17790SOL     OW54810   3.863   0.539   5.839 -0.3190 -0.0342  0.6571
17790SOL    HW154811   3.919   0.609   5.806 -2.5315  1.5958  0.1033
17790SOL    HW254812   3.828   0.573   5.921 -1.3660 -0.5030  0.4193
17791SOL     OW54813   4.409   5.163  10.749 -0.0510  0.4928 -0.3580
17791SOL    HW154814   4.486   5.156  10.806 -0.6028 -0.0326  0.3306
17791SOL    HW254815   4.343   5.205  10.803 -1.0371 -1.2864 -0.1142
17792SOL     OW54816   6.789   3.635   4.979 -0.3107 -0.2435  0.3767
17792SOL    HW154817   6.866   3.639   4.922 -0.2070 -0.7635  0.4785
17792SOL    HW254818   6.749   3.722   4.971 -0.2365 -0.2778 -0.3966
17793SOL     OW54819   1.139   6.159   2.981 -0.5026  0.0838 -0.0716
17793SOL    HW154820   1.212   6.200   2.933  0.5758 -0.1801  1.2905
17793SOL    HW254821   1.081   6.233   3.002  0.4185  0.6386  0.6156
17794SOL     OW54822   1.028   5.157   6.199  0.7409 -0.1343  0.0463
17794SOL    HW154823   1.040   5.089   6.265 -0.7432 -0.0943  0.3923
17794SOL    HW254824   1.113   5.201   6.194  1.7027 -1.9335 -0.1268
17795SOL     OW54825   0.324   1.211  11.266 -0.5567 -1.0448  0.2838
17795SOL    HW154826   0.240   1.234  11.305 -1.0688  0.7408 -1.6748
17795SOL    HW254827   0.317   1.118  11.246 -4.0881 -0.1948 -4.0408
17796SOL     OW54828   4.829   5.488   0.717 -0.4050 -0.5585  0.1840
17796SOL    HW154829   4.771   5.488   0.641 -0.0914 -0.1229 -0.0560
17796SOL    HW254830   4.876   5.404   0.710 -0.9487 -0.8747  0.3374
17797SOL     OW54831   0.272   6.288  10.327 -0.0984 -0.1608 -0.1084
17797SOL    HW154832   0.336   6.222  10.301 -1.2087 -1.0758 -0.5913
17797SOL    HW254833   0.310   6.371  10.297  0.7505 -0.7071 -0.5804
17798SOL     OW54834   3.800   4.928   7.630  0.1394  0.4361  0.0023
17798SOL    HW154835   3.878   4.966   7.589  1.0700 -0.8347  0.5172
17798SOL    HW254836   3.759   4.876   7.561  1.0640 -0.7689  0.3307
17799SOL     OW54837   5.311   7.489   2.525  0.0719  0.3029  0.3791
17799SOL    HW154838   5.218   7.466   2.537 -0.1144  0.8816  0.1036
17799SOL    HW254839   5.357   7.406   2.527 -0.5620 -0.0829 -0.3897
17800SOL     OW54840   2.742   5.702   6.493  0.3645 -0.5089  0.1206
17800SOL    HW154841   2.680   5.734   6.427 -0.3904  0.4772  1.2601
17800SOL    HW254842   2.733   5.763   6.566  2.8045 -0.2363  0.2834
17801SOL     OW54843   5.572   6.863  10.367 -0.0643 -0.2993  0.3690
17801SOL    HW154844   5.479   6.844  10.361 -0.2139  0.2690  0.7508
17801SOL    HW254845   5.590   6.870  10.461 -0.5872  3.8287  0.3734
17802SOL     OW54846   0.140   7.566   4.090  0.4153 -0.1235 -0.0443
17802SOL    HW154847   0.165   7.658   4.095  0.3444  0.0311 -1.7657
17802SOL    HW254848   0.216   7.522   4.052  0.1162 -0.6101 -0.0915
17803SOL     OW54849   2.697   6.536  11.911 -0.1796  0.4559 -0.0683
17803SOL    HW154850   2.712   6.631  11.911 -0.3310  0.4802  0.2688
17803SOL    HW254851   2.652   6.519  11.828  0.2131  0.6204 -0.3185
17804SOL     OW54852   4.737   2.539   0.179  0.7844 -0.3379  0.5435
17804SOL    HW154853   4.677   2.467   0.161  0.1324  0.0905  0.9706
17804SOL    HW254854   4.736   2.591   0.099  0.0062  0.0705  0.8094
17805SOL     OW54855   2.460   2.103   3.578  0.5048 -0.1933  0.6194
17805SOL    HW154856   2.370   2.083   3.605  0.7503 -1.5634  0.4654
17805SOL    HW254857   2.511   2.027   3.605  1.5477  0.3832  0.3099
17806SOL     OW54858   3.689   0.470   7.473  0.2386 -0.5018 -0.1939
17806SOL    HW154859   3.729   0.536   7.416 -0.0047 -0.4409 -0.2936
17806SOL    HW254860   3.720   0.492   7.561  1.5490 -1.2744 -0.4330
17807SOL     OW54861   0.335   5.481  11.770 -0.4160 -0.3530 -0.4237
17807SOL    HW154862   0.324   5.521  11.684 -2.0950 -1.8150 -0.9406
17807SOL    HW254863   0.269   5.413  11.774  1.1721 -1.9168  1.1290
17808SOL     OW54864   2.995   2.977   5.314 -0.5950 -0.3391 -0.1999
17808SOL    HW154865   3.035   2.933   5.239  1.1299  0.5961  0.1368
17808SOL    HW254866   2.984   2.907   5.379 -0.3108 -0.7725 -0.6122
17809SOL     OW54867   5.682   7.903   5.974  0.4344  0.5019  0.5245
17809SOL    HW154868   5.777   7.909   5.986  0.5906  1.1743 -0.8784
17809SOL    HW254869   5.666   7.812   5.952  0.6191  0.1720  1.6702
17810SOL     OW54870   5.637   4.737  10.122 -0.0680 -0.3571 -0.4528
17810SOL    HW154871   5.708   4.784  10.078  0.8265 -0.3312  0.9626
17810SOL    HW254872   5.606   4.798  10.189  0.0709 -1.1980  0.3929
17811SOL     OW54873   1.849   7.628   5.485 -0.5967 -0.4126 -0.2019
17811SOL    HW154874   1.871   7.568   5.413  2.2539 -0.1659  0.3570
17811SOL    HW254875   1.799   7.698   5.443  1.3491 -0.0599 -2.0967
17812SOL     OW54876   3.825   2.626   6.981  0.6502  0.0455 -0.1400
17812SOL    HW154877   3.739   2.636   7.022  0.3833  0.9132 -0.8815
17812SOL    HW254878   3.807   2.577   6.900  0.4397  2.2556 -1.5221
17813SOL     OW54879   5.003   7.604   2.256 -0.5072 -0.1797  0.7683
17813SOL    HW154880   5.052   7.602   2.174 -0.0617  1.2116  0.9634
17813SOL    HW254881   4.956   7.521   2.258  0.0869 -0.5805 -0.5102
17814SOL     OW54882   7.459   0.926   6.419 -0.1570  0.0338 -0.0234
17814SOL    HW154883   7.438   0.998   6.359  4.0148  0.5788 -1.1605
17814SOL    HW254884   7.432   0.958   6.505  1.3842  2.9879 -0.5070
17815SOL     OW54885   6.758   6.490   4.701  0.4047 -0.0085  0.6419
17815SOL    HW154886   6.669   6.478   4.668  0.6281  0.8506 -0.3083
17815SOL    HW254887   6.791   6.401   4.715 -0.0202 -0.3667 -0.5678
17816SOL     OW54888   7.946   5.626  11.234  0.0709  0.2975 -0.0699
17816SOL    HW154889   7.891   5.558  11.272 -1.3173  1.1928 -0.4227
17816SOL    HW254890   8.008   5.649  11.303 -1.8740  1.3120  1.4096
17817SOL     OW54891   1.713   1.980   7.860 -0.4533  0.2875  0.1504
17817SOL    HW154892   1.795   1.933   7.847 -0.1303  0.5907  1.0243
17817SOL    HW254893   1.704   2.036   7.783 -0.5951 -0.8310 -0.6638
17818SOL     OW54894   0.495   2.947   8.649 -0.3031  0.5017 -0.1571
17818SOL    HW154895   0.529   3.029   8.615  0.1461  0.6922  0.7030
17818SOL    HW254896   0.441   2.911   8.579  0.5780  0.8732 -1.0487
17819SOL     OW54897   7.779   3.983   7.326 -0.1061 -0.4993 -0.3403
17819SOL    HW154898   7.724   4.042   7.275  0.2441 -0.7826 -1.0605
17819SOL    HW254899   7.861   4.031   7.338  0.1914 -0.8395 -0.9561
17820SOL     OW54900   7.536   6.753  10.901  0.2910  0.3007 -0.2247
17820SOL    HW154901   7.547   6.795  10.816  0.3107  2.4196  0.7473
17820SOL    HW254902   7.460   6.697  10.891  1.2876 -0.7828 -2.0759
17821SOL     OW54903   0.031   6.998   9.201 -0.0930 -0.5785 -0.5008
17821SOL    HW154904   0.087   6.974   9.127 -0.2350 -0.3017 -0.6990
17821SOL    HW254905   0.046   7.092   9.213  2.1752 -1.1240  1.6860
17822SOL     OW54906   0.337   3.799   1.779 -0.1390 -0.1781  0.5350
17822SOL    HW154907   0.416   3.842   1.746  1.4343 -1.6920  2.0940
17822SOL    HW254908   0.366   3.711   1.803 -1.9175 -0.2778  2.6645
17823SOL     OW54909   3.486   4.883   2.629 -0.1259  0.4984  0.5480
17823SOL    HW154910   3.546   4.819   2.590 -1.2500  1.1098 -2.4604
17823SOL    HW254911   3.401   4.864   2.588 -0.6333  3.4705  0.0542
17824SOL     OW54912   2.603   1.879  10.301  0.5092  0.5683 -1.0022
17824SOL    HW154913   2.526   1.828  10.277  0.7913  0.7213 -2.3039
17824SOL    HW254914   2.642   1.831  10.374 -0.5236  0.2163 -0.6674
17825SOL     OW54915   7.693   0.878   3.458 -0.3895 -0.2497  0.7103
17825SOL    HW154916   7.739   0.808   3.412  0.5001 -0.1046  1.3587
17825SOL    HW254917   7.731   0.959   3.424 -1.0065 -0.0826  0.3876
17826SOL     OW54918   2.289   2.179   6.212 -0.2844 -0.1760 -0.0632
17826SOL    HW154919   2.364   2.200   6.157  0.1909  0.1468  0.6848
17826SOL    HW254920   2.284   2.084   6.212  0.7443 -0.2476  0.6695
17827SOL     OW54921   1.335   2.624   4.124 -0.2449  0.0712  0.2490
17827SOL    HW154922   1.240   2.615   4.121 -0.0677 -2.2680 -0.4495
17827SOL    HW254923   1.356   2.624   4.218 -0.8823 -0.5243  0.4047
17828SOL     OW54924   0.450   6.274   5.075  0.4731 -0.0338  0.1632
17828SOL    HW154925   0.455   6.182   5.104 -2.7373 -0.2352  0.4212
17828SOL    HW254926   0.485   6.324   5.149  2.7312 -0.9928 -0.1653
17829SOL     OW54927   1.784   2.194   7.668  0.3281 -0.9938  0.2498
17829SOL    HW154928   1.800   2.175   7.575 -1.1056  1.2237 -0.5322
17829SOL    HW254929   1.858   2.249   7.694  0.7908 -1.7122  0.4680
17830SOL     OW54930   5.449   1.238   1.740  1.0170 -0.1148 -0.2045
17830SOL    HW154931   5.478   1.314   1.790  1.6393 -0.6197  0.2253
17830SOL    HW254932   5.426   1.273   1.654  1.0466  0.5914  0.0663
17831SOL     OW54933   7.549   7.010   5.567  0.1563  0.1797 -0.5882
17831SOL    HW154934   7.498   7.092   5.561 -0.5993 -0.2981 -0.9252
17831SOL    HW254935   7.640   7.039   5.571 -0.1302  1.0629 -0.0480
17832SOL     OW54936   7.899   5.940  10.301  0.0566 -0.5434 -0.5424
17832SOL    HW154937   7.808   5.945  10.272 -0.8866 -1.4463  1.9607
17832SOL    HW254938   7.944   6.012  10.256 -2.0773  0.4472 -1.1756
17833SOL     OW54939   1.122   5.226   9.950  0.0454 -1.0281 -0.7998
17833SOL    HW154940   1.209   5.255   9.978 -0.8656  0.6206  0.5293
17833SOL    HW254941   1.122   5.236   9.855  0.9708 -0.0176 -0.7115
17834SOL     OW54942   2.242   3.086   0.280 -0.1700  0.0049  0.0876
17834SOL    HW154943   2.285   3.143   0.216 -2.5996  2.2975  0.2957
17834SOL    HW254944   2.175   3.040   0.230 -0.0390 -0.5939  0.4540
17835SOL     OW54945   4.037   2.117  10.929  0.4057  0.0774 -0.0146
17835SOL    HW154946   4.018   2.048  10.866  1.4749  0.4617 -0.7788
17835SOL    HW254947   3.975   2.187  10.908  0.6142  0.1164 -0.5074
17836SOL     OW54948   1.457   5.563  11.241 -0.9104  0.3531  0.0693
17836SOL    HW154949   1.454   5.470  11.219 -0.9163  0.4232 -0.2324
17836SOL    HW254950   1.372   5.581  11.281 -0.8557  0.1976  0.2534
17837SOL     OW54951   7.923   2.781   9.096  0.0941 -0.3236 -0.5732
17837SOL    HW154952   7.881   2.749   9.017 -2.3239  3.0735 -0.8616
17837SOL    HW254953   7.856   2.773   9.164  0.9247  0.0645  0.3149
17838SOL     OW54954   3.849   0.481   8.549  0.8551  0.2506 -0.0912
17838SOL    HW154955   3.808   0.450   8.630 -0.6727 -1.2850 -1.3822
17838SOL    HW254956   3.902   0.407   8.519 -0.9798 -0.3903 -1.9951
17839SOL     OW54957   6.810   4.051  10.012  0.2496 -0.3024  0.3960
17839SOL    HW154958   6.729   4.095   9.986  1.4409  0.7709 -1.7814
17839SOL    HW254959   6.799   4.035  10.106 -2.2673  0.2260  0.2790
17840SOL     OW54960   6.698   6.602  11.031  0.1807  0.0929  0.0219
17840SOL    HW154961   6.617   6.555  11.052  0.9541 -0.9089  0.8752
17840SOL    HW254962   6.686   6.689  11.070 -0.9320  0.3547 -0.8565
17841SOL     OW54963   7.775   0.890   6.134  0.2984  0.3713 -0.2713
17841SOL    HW154964   7.841   0.822   6.121  0.4198  0.4994 -0.3213
17841SOL    HW254965   7.802   0.935   6.214 -1.1082 -1.2022  1.1978
17842SOL     OW54966   3.356   7.109   5.648  0.4441  0.0054  0.6759
17842SOL    HW154967   3.423   7.176   5.652  0.2882  0.1444  1.0137
17842SOL    HW254968   3.368   7.067   5.563  0.2475  0.7623  0.2673
17843SOL     OW54969   5.723   2.084   4.145  0.0805 -0.4913  0.5388
17843SOL    HW154970   5.633   2.051   4.134 -1.0889  2.4688  0.3611
17843SOL    HW254971   5.747   2.117   4.059  0.9853 -0.3905  0.8244
17844SOL     OW54972   0.225   0.482   7.188  0.2928 -0.7809 -0.0662
17844SOL    HW154973   0.210   0.577   7.195 -0.5037 -0.9829  1.3292
17844SOL    HW254974   0.219   0.464   7.094  0.0593  0.4920 -0.3186
17845SOL     OW54975   6.243   4.863   8.667 -0.8241  0.3965  0.3656
17845SOL    HW154976   6.252   4.941   8.612  2.2693  0.2637  0.5033
17845SOL    HW254977   6.205   4.896   8.748 -0.0320  1.7158  0.2353
17846SOL     OW54978   3.900   6.259   2.046  0.1447  0.1464  0.0553
17846SOL    HW154979   3.973   6.201   2.024 -0.5343 -0.3921 -0.8337
17846SOL    HW254980   3.886   6.311   1.968 -1.3011 -0.7093 -0.2874
17847SOL     OW54981   4.220   7.595   0.986 -1.0980 -0.1312  0.2946
17847SOL    HW154982   4.272   7.630   0.914 -0.2953 -1.8032  0.0096
17847SOL    HW254983   4.131   7.588   0.950 -0.5852 -1.5410 -0.7872
17848SOL     OW54984   7.062   6.536   0.087  0.3003  0.3182  0.1578
17848SOL    HW154985   7.136   6.529   0.026  0.6130  3.4021  0.0134
17848SOL    HW254986   6.988   6.560   0.031 -1.0235 -3.0471  0.2585
17849SOL     OW54987   2.882   5.930   5.427  0.0368 -0.3295 -0.0192
17849SOL    HW154988   2.900   6.021   5.450  0.6017 -0.5412  0.3847
17849SOL    HW254989   2.924   5.919   5.341 -0.4487 -0.0780 -0.2951
17850SOL     OW54990   3.852   4.436   3.684 -0.3177 -0.2167  0.0090
17850SOL    HW154991   3.827   4.497   3.615 -0.1465  0.1664  0.2824
17850SOL    HW254992   3.908   4.371   3.641  0.4318  0.4632 -0.0589
17851SOL     OW54993   6.645   3.421  10.908 -0.5144  0.2423  0.3681
17851SOL    HW154994   6.730   3.418  10.952 -0.1497 -0.3054 -0.3452
17851SOL    HW254995   6.666   3.407  10.815 -1.4373 -0.6644  0.2799
17852SOL     OW54996   6.640   2.803  11.891  0.0312 -0.2192 -0.3414
17852SOL    HW154997   6.683   2.759  11.965  1.1977  1.8096  0.2927
17852SOL    HW254998   6.569   2.852  11.932 -0.4275 -0.4672 -0.8391
17853SOL     OW54999   3.936   1.942   4.723 -0.1759 -0.2928  0.3357
17853SOL    HW155000   3.948   2.036   4.737 -2.6485  0.2439 -0.6566
17853SOL    HW255001   3.868   1.917   4.786 -2.9064 -0.3283 -2.4159
17854SOL     OW55002   2.394   1.711  10.249 -0.5122 -0.1620 -0.0594
17854SOL    HW155003   2.390   1.683  10.158 -0.3193 -2.0824  0.4752
17854SOL    HW255004   2.305   1.702  10.282 -0.9209  1.9804 -0.3946
17855SOL     OW55005   6.630   5.116   0.368  0.5445 -0.1907  0.3520
17855SOL    HW155006   6.650   5.094   0.459  0.3407 -1.0269  0.2111
17855SOL    HW255007   6.559   5.180   0.374  0.0628 -0.7458  0.7886
17856SOL     OW55008   5.066   1.981   6.411 -0.0730 -0.3108 -0.5163
17856SOL    HW155009   5.029   2.030   6.338 -0.3265 -0.4375 -0.4759
17856SOL    HW255010   5.070   2.044   6.483  2.8931  0.6650 -1.3986
17857SOL     OW55011   4.849   7.868   2.629 -0.0563 -0.1610  0.1850
17857SOL    HW155012   4.853   7.786   2.579  2.3510 -0.8352  1.3264
17857SOL    HW255013   4.894   7.932   2.574 -1.0294  0.1792 -0.2485
17858SOL     OW55014   4.954   5.526   8.457  0.3595  0.2678  0.1616
17858SOL    HW155015   4.928   5.606   8.411  0.4550  0.7964  0.9974
17858SOL    HW255016   4.948   5.457   8.391  1.4110  1.1411 -0.8885
17859SOL     OW55017   5.637   3.226   7.227  0.0199  0.5793  0.6644
17859SOL    HW155018   5.554   3.268   7.250  0.1661  1.8482 -0.9256
17859SOL    HW255019   5.703   3.274   7.277 -0.0925  0.4077  0.9737
17860SOL     OW55020   1.072   2.763  11.522 -0.0973  0.3549  0.8953
17860SOL    HW155021   1.159   2.736  11.552  0.6320  1.4601 -0.1414
17860SOL    HW255022   1.067   2.731  11.432 -0.5716  0.7374  0.7830
17861SOL     OW55023   4.200   3.576   0.732  0.3033  0.1376 -0.2921
17861SOL    HW155024   4.136   3.644   0.712 -0.7851 -0.8677 -0.3115
17861SOL    HW255025   4.284   3.621   0.729 -0.4822  1.8436  1.2073
17862SOL     OW55026   4.944   5.375   7.284  0.1065  0.0088  0.0995
17862SOL    HW155027   4.984   5.461   7.293  0.2482 -0.0277 -0.1744
17862SOL    HW255028   4.850   5.392   7.286  0.1067  0.3575 -1.5599
17863SOL     OW55029   2.776   7.738   2.565 -0.2899 -0.4644 -0.3408
17863SOL    HW155030   2.812   7.824   2.587 -1.6338  0.1149 -0.3257
17863SOL    HW255031   2.841   7.676   2.598  0.6963  0.5324 -0.3393
17864SOL     OW55032   5.543   7.711   8.882  0.5963 -0.0292 -0.0799
17864SOL    HW155033   5.495   7.638   8.920  1.6027 -0.1712  0.9667
17864SOL    HW255034   5.511   7.789   8.929  0.0517  0.1283 -0.6910
17865SOL     OW55035   1.314   2.598   5.725 -0.0098  0.5319  0.2148
17865SOL    HW155036   1.319   2.504   5.739  0.0526  0.6380  0.9739
17865SOL    HW255037   1.310   2.635   5.813  0.0538  1.2420 -0.0716
17866SOL     OW55038   2.179   0.699   9.098 -0.6153  0.0005 -0.5097
17866SOL    HW155039   2.185   0.768   9.033  1.4844  0.1399 -0.2449
17866SOL    HW255040   2.183   0.744   9.182  1.7843 -0.4399 -0.3318
17867SOL     OW55041   3.827   6.929   6.659 -0.0450  0.2269  0.0994
17867SOL    HW155042   3.826   6.860   6.592 -2.4163  1.7400 -1.6008
17867SOL    HW255043   3.735   6.942   6.681  0.5128  1.4449  1.9050
17868SOL     OW55044   2.564   5.569   8.990  0.4791  0.3559 -0.4072
17868SOL    HW155045   2.481   5.579   9.036  1.2006  1.4676  0.7533
17868SOL    HW255046   2.573   5.475   8.975 -0.2506  0.0491  0.9119
17869SOL     OW55047   1.167   0.356   8.490  0.0500  0.1030  0.1062
17869SOL    HW155048   1.218   0.281   8.459  1.4446  1.6796 -1.7017
17869SOL    HW255049   1.108   0.320   8.555  2.4086 -2.1572  1.1941
17870SOL     OW55050   3.218   2.330   8.415  0.2559 -0.0794 -0.5248
17870SOL    HW155051   3.193   2.239   8.397 -2.9311  0.9392 -1.9819
17870SOL    HW255052   3.175   2.350   8.498 -1.2434  0.7525 -1.4510
17871SOL     OW55053   0.224   6.688   9.805  0.0623  1.2416  0.4518
17871SOL    HW155054   0.314   6.684   9.772 -0.9874 -0.7084 -2.5838
17871SOL    HW255055   0.198   6.597   9.816 -2.1276  1.6656 -0.6521
17872SOL     OW55056   4.984   2.601   7.696  0.4644  0.6970 -0.3045
17872SOL    HW155057   5.007   2.674   7.639 -0.3288 -0.6467 -2.4723
17872SOL    HW255058   5.061   2.543   7.694 -0.3924 -0.4566 -1.9487
17873SOL     OW55059   7.082   4.349   2.208 -0.5066 -0.0648 -0.3722
17873SOL    HW155060   7.114   4.316   2.292  0.0576 -0.6061 -0.7918
17873SOL    HW255061   6.993   4.314   2.201 -0.8812  0.7029  0.3873
17874SOL     OW55062   3.997   6.943   0.891  0.4791 -0.4740  0.0424
17874SOL    HW155063   4.005   6.855   0.929  1.5538 -0.8950 -1.0863
17874SOL    HW255064   4.084   6.981   0.899 -0.3714  1.2084  2.1020
17875SOL     OW55065   5.680   6.095   2.218 -0.4130  0.4154 -0.4536
17875SOL    HW155066   5.599   6.141   2.194 -0.1750  0.5257 -1.0595
17875SOL    HW255067   5.689   6.112   2.312 -2.1329 -1.2324  0.0786
17876SOL     OW55068   7.563   6.567   8.014 -0.3420  0.1812  0.2177
17876SOL    HW155069   7.492   6.537   8.071 -1.4977 -1.8638 -2.1113
17876SOL    HW255070   7.564   6.504   7.942  1.5125  2.1864 -1.6556
17877SOL     OW55071   3.189   5.182   4.306 -0.2386  0.6147  0.2254
17877SOL    HW155072   3.176   5.245   4.377  0.0587  2.0478 -0.9485
17877SOL    HW255073   3.279   5.151   4.318 -0.6002 -0.1084  1.1908
17878SOL     OW55074   1.198   3.484   1.773  0.7993 -0.1720  0.9983
17878SOL    HW155075   1.133   3.527   1.717  1.0789  0.8506  1.4525
17878SOL    HW255076   1.207   3.542   1.848  2.1997 -0.3364  0.9713
17879SOL     OW55077   7.511   3.031   9.179  0.1608  0.1092  0.0948
17879SOL    HW155078   7.604   3.051   9.164  0.2503 -0.9311 -0.9064
17879SOL    HW255079   7.466   3.114   9.164  0.7346  0.1499 -1.6050
17880SOL     OW55080   1.149   5.046  10.764  0.0029 -0.6806  0.1105
17880SOL    HW155081   1.111   5.120  10.717  0.0433 -0.1089  0.9399
17880SOL    HW255082   1.240   5.042  10.733 -0.2826 -1.0270 -0.6843
17881SOL     OW55083   2.607   4.795   6.588 -0.2963  0.4618 -0.1565
17881SOL    HW155084   2.558   4.715   6.608  1.3820 -1.7021 -3.7461
17881SOL    HW255085   2.547   4.847   6.534 -0.6919  0.7515  0.5431
17882SOL     OW55086   2.030   5.943   4.785 -0.0489 -0.0647 -0.0148
17882SOL    HW155087   2.003   5.977   4.699  0.4871 -2.2688 -1.1444
17882SOL    HW255088   2.068   6.018   4.830 -0.5605  1.2194 -1.6127
17883SOL     OW55089   1.316   7.883   7.042 -0.5987  0.2150  0.9972
17883SOL    HW155090   1.349   7.914   7.127 -0.4281 -0.3491  1.1377
17883SOL    HW255091   1.235   7.837   7.064 -0.5364  0.0400  0.8534
17884SOL     OW55092   6.324   4.009   7.161  0.4740  0.1176  1.2298
17884SOL    HW155093   6.240   4.052   7.182  0.5349  0.1075  1.4911
17884SOL    HW255094   6.351   3.967   7.243  1.2645  1.0135  1.4511
17885SOL     OW55095   5.263   1.382   0.720  0.2304  0.3320  0.2527
17885SOL    HW155096   5.306   1.310   0.673 -1.0983  0.4380 -1.1967
17885SOL    HW255097   5.191   1.408   0.664  0.0472  2.1358  1.2382
17886SOL     OW55098   0.711   7.371   3.330 -0.5416 -0.9693  0.4061
17886SOL    HW155099   0.765   7.326   3.266 -1.3331 -0.4138 -0.6937
17886SOL    HW255100   0.642   7.309   3.353  0.2997 -1.5323  1.5077
17887SOL     OW55101   0.745   2.082   5.926  0.2996  0.1161  0.0871
17887SOL    HW155102   0.814   2.078   5.993 -0.1245 -1.8453  0.4660
17887SOL    HW255103   0.705   1.995   5.928 -1.5839  0.9080 -0.7709
17888SOL     OW55104   3.906   2.785   3.973  0.1501 -0.1373 -0.1832
17888SOL    HW155105   3.977   2.735   3.933  0.9664  1.0374 -0.2665
17888SOL    HW255106   3.832   2.725   3.975  1.6271 -2.0614  1.5924
17889SOL     OW55107   4.795   3.939   1.980 -0.0029 -0.2062  0.0011
17889SOL    HW155108   4.882   3.973   1.959  0.1909 -0.7171 -0.0566
17889SOL    HW255109   4.803   3.904   2.069 -1.2076  3.2259  1.5982
17890SOL     OW55110   2.209   4.271   9.766 -0.0675  0.0738  0.3354
17890SOL    HW155111   2.143   4.256   9.698 -0.7006  1.4945  0.6031
17890SOL    HW255112   2.292   4.272   9.718 -0.0446 -2.7823  0.1282
17891SOL     OW55113   1.315   0.172   2.278 -0.2794  0.5869 -0.3588
17891SOL    HW155114   1.284   0.229   2.207 -0.3762 -0.5692 -1.2805
17891SOL    HW255115   1.293   0.219   2.358 -1.6070  1.2133 -1.0628
17892SOL     OW55116   3.382   2.790   1.777 -0.2634  0.3041  0.0070
17892SOL    HW155117   3.449   2.743   1.728  0.1870  1.4035 -0.4837
17892SOL    HW255118   3.394   2.762   1.868  0.7869  0.3855 -0.0928
17893SOL     OW55119   3.283   0.425   7.793 -0.0360  0.4869  0.1748
17893SOL    HW155120   3.328   0.342   7.778  1.8550  1.1746  1.5527
17893SOL    HW255121   3.311   0.481   7.719 -2.4917 -0.4528 -1.5883
17894SOL     OW55122   3.332   5.645   6.672 -0.8767  0.0044 -0.4743
17894SOL    HW155123   3.327   5.663   6.766  0.3201  1.2918 -0.6251
17894SOL    HW255124   3.315   5.730   6.630  1.4897  0.1494 -1.3116
17895SOL     OW55125   5.204   1.811   7.401 -0.0889  0.6576  0.4588
17895SOL    HW155126   5.165   1.738   7.354  0.0428  1.9331 -1.7400
17895SOL    HW255127   5.284   1.775   7.440 -0.5072 -0.5701  0.2247
17896SOL     OW55128   5.851   3.617   2.656 -0.0707  0.4354  0.2372
17896SOL    HW155129   5.760   3.600   2.631  0.3068  0.6157 -1.4360
17896SOL    HW255130   5.873   3.698   2.609  2.3096 -1.9917 -3.3062
17897SOL     OW55131   0.693   4.228   3.963  0.7584 -0.1762  0.8866
17897SOL    HW155132   0.784   4.259   3.958  0.6831 -0.1072 -0.8338
17897SOL    HW255133   0.701   4.135   3.982  1.4304 -0.9320 -2.3986
17898SOL     OW55134   5.109   3.222   6.040 -0.4933 -0.1830  0.1987
17898SOL    HW155135   5.095   3.233   5.946 -1.6402 -1.1745  0.2365
17898SOL    HW255136   5.073   3.302   6.079  2.2129  1.4171 -0.3175
17899SOL     OW55137   0.701   6.887   4.050  0.5091  0.4550 -0.2046
17899SOL    HW155138   0.632   6.825   4.076  0.5402  0.0920 -0.9585
17899SOL    HW255139   0.726   6.931   4.132 -0.3445  0.3148  0.1443
17900SOL     OW55140   6.238   1.170   8.150  0.3375 -0.2436  0.1174
17900SOL    HW155141   6.237   1.083   8.189  1.2178 -0.1563  0.3411
17900SOL    HW255142   6.197   1.226   8.216  0.1249 -0.4136  0.1331
17901SOL     OW55143   0.388   5.952  11.773 -0.5116  0.5906 -0.0669
17901SOL    HW155144   0.419   6.019  11.834 -1.8610  1.0206  0.1954
17901SOL    HW255145   0.385   5.996  11.688  1.0977  0.0743 -0.4137
17902SOL     OW55146   5.777   5.983   4.111  0.4770  0.0773  0.1856
17902SOL    HW155147   5.716   5.911   4.097  0.7211  0.3221 -2.7175
17902SOL    HW255148   5.854   5.941   4.151 -1.0817 -0.3691  3.0347
17903SOL     OW55149   2.922   5.944   9.419  0.7708  0.0900 -0.5880
17903SOL    HW155150   3.017   5.937   9.431  0.8299 -1.2159 -1.5188
17903SOL    HW255151   2.886   5.940   9.508  1.5290 -1.0163 -0.3024
17904SOL     OW55152   5.005   2.483  10.846  0.5085  0.2635 -0.2035
17904SOL    HW155153   5.057   2.490  10.766  0.4388  0.2009 -0.2540
17904SOL    HW255154   5.068   2.462  10.914  0.4427 -0.6106 -0.3989
17905SOL     OW55155   6.010   3.872   8.866  0.4010 -0.0211 -0.3374
17905SOL    HW155156   5.964   3.954   8.883  1.3091  0.2397  1.0014
17905SOL    HW255157   6.045   3.846   8.951  0.9267 -1.3145 -0.9256
17906SOL     OW55158   2.623   2.714   3.221 -0.3113 -0.4128  0.1887
17906SOL    HW155159   2.716   2.731   3.235 -0.7833  0.6589  2.5099
17906SOL    HW255160   2.582   2.734   3.305 -2.6874 -0.6476 -0.8283
17907SOL     OW55161   6.504   3.286   2.145 -0.1560 -0.4471 -0.1678
17907SOL    HW155162   6.413   3.297   2.171 -0.1774  0.1606 -0.5008
17907SOL    HW255163   6.502   3.213   2.083 -0.2694 -1.1064  0.5948
17908SOL     OW55164   7.837   7.441   7.959 -0.2905  0.3146 -0.7513
17908SOL    HW155165   7.857   7.472   8.048  1.1203  3.0687 -1.8879
17908SOL    HW255166   7.751   7.477   7.940 -0.1105  0.6963 -0.8649
17909SOL     OW55167   5.770   0.155   0.311 -0.3349  0.6412 -0.4663
17909SOL    HW155168   5.796   0.112   0.229 -1.0265  2.6874 -1.8461
17909SOL    HW255169   5.759   0.083   0.373  0.2595 -0.9901 -2.1457
17910SOL     OW55170   3.085   7.582   1.001  0.0989  1.3954 -0.3444
17910SOL    HW155171   3.165   7.533   1.019  0.7974  2.8199  0.6285
17910SOL    HW255172   3.104   7.627   0.918 -1.1924 -1.1890 -2.1907
17911SOL     OW55173   3.830   0.499   0.905  0.3624 -0.5202 -0.3423
17911SOL    HW155174   3.863   0.577   0.949  0.7450 -0.7522 -0.2103
17911SOL    HW255175   3.866   0.504   0.817  0.1474 -0.4009 -0.4249
17912SOL     OW55176   1.218   6.734   1.010  0.2341 -0.0430 -0.6657
17912SOL    HW155177   1.140   6.689   0.977  0.5321 -1.4363  0.4255
17912SOL    HW255178   1.290   6.675   0.989  0.7246  0.2457  0.1707
17913SOL     OW55179   1.655   4.359   2.427 -0.0709 -0.0802 -0.3519
17913SOL    HW155180   1.560   4.347   2.420 -0.3531  1.1661  0.8183
17913SOL    HW255181   1.689   4.333   2.341 -1.5739  0.3362 -1.1124
17914SOL     OW55182   0.177   0.175   3.187  0.1556 -0.1874 -0.9589
17914SOL    HW155183   0.116   0.189   3.114 -1.2002 -0.7846  0.0353
17914SOL    HW255184   0.198   0.082   3.183  0.3005 -0.1641 -0.7518
17915SOL     OW55185   2.275   3.012   6.557 -0.0946  0.0939 -0.3746
17915SOL    HW155186   2.303   3.086   6.610  0.2363 -0.3124  0.0274
17915SOL    HW255187   2.348   2.950   6.561 -0.6222 -0.5230 -0.1781
17916SOL     OW55188   3.967   4.389   7.668 -0.5687  0.0994  0.2562
17916SOL    HW155189   3.938   4.385   7.759 -0.5542 -1.5225  0.2125
17916SOL    HW255190   4.058   4.417   7.672  0.2795 -2.5271  0.9684
17917SOL     OW55191   0.475   2.195   2.257  0.5394 -0.0697 -0.5950
17917SOL    HW155192   0.391   2.232   2.228  0.3951  1.2145  1.2565
17917SOL    HW255193   0.520   2.171   2.176 -0.6551  1.4024 -1.7656
17918SOL     OW55194   0.565   0.098   2.174  0.2482 -0.2387 -0.1829
17918SOL    HW155195   0.616   0.166   2.130  1.1312 -1.6454 -1.4207
17918SOL    HW255196   0.585   0.110   2.267  2.5541 -0.4593 -0.5857
17919SOL     OW55197   3.061   4.146   8.972 -0.0616  0.1972  0.0629
17919SOL    HW155198   3.009   4.187   9.042 -1.3353  0.6976 -1.1179
17919SOL    HW255199   3.148   4.186   8.981 -0.9823  2.5196 -0.4099
17920SOL     OW55200   0.102   2.900   7.785 -0.5669 -0.7953 -0.0335
17920SOL    HW155201   0.138   2.973   7.733 -0.5132 -1.1487 -0.4977
17920SOL    HW255202   0.094   2.828   7.723 -0.9902 -1.0718  0.3370
17921SOL     OW55203   5.917   4.586  11.563 -0.6228 -0.1344 -0.4020
17921SOL    HW155204   5.824   4.607  11.567 -1.2979 -2.8535  0.5021
17921SOL    HW255205   5.929   4.540  11.480 -0.2242 -0.2858 -0.2676
17922SOL     OW55206   5.487   1.869   1.344  0.1008 -0.5174  0.1644
17922SOL    HW155207   5.443   1.797   1.299 -0.2588 -0.0964 -0.1557
17922SOL    HW255208   5.537   1.914   1.276 -2.3817  1.6299 -0.3795
17923SOL     OW55209   5.654   6.061  12.288 -0.3518 -0.0129 -0.3520
17923SOL    HW155210   5.629   5.982  12.335 -0.1344  0.1541  0.0488
17923SOL    HW255211   5.571   6.106  12.272 -0.2729  1.1830  2.1226
17924SOL     OW55212   5.824   1.007   4.710 -0.1787 -0.2835  0.3274
17924SOL    HW155213   5.865   1.092   4.698  0.0440 -0.3579  0.5414
17924SOL    HW255214   5.750   1.024   4.768  0.2157 -0.3246  0.8607
17925SOL     OW55215   1.423   0.540   8.982  0.0668  0.3511  0.0036
17925SOL    HW155216   1.346   0.530   8.925  0.3893 -0.5040 -0.2937
17925SOL    HW255217   1.442   0.634   8.979 -1.8296  0.8251  1.2508
17926SOL     OW55218   2.866   2.004   1.539  0.5019  0.3384 -0.5237
17926SOL    HW155219   2.942   1.988   1.595  0.5170 -0.5385 -0.7760
17926SOL    HW255220   2.885   1.957   1.458 -0.1490  0.4143 -0.7292
17927SOL     OW55221   0.311   2.202   3.588 -0.0253 -0.2209 -0.3586
17927SOL    HW155222   0.292   2.156   3.669  1.5158  0.5977  0.5321
17927SOL    HW255223   0.378   2.149   3.545  0.4233  0.2212 -0.2233
17928SOL     OW55224   1.568   5.275   4.531  0.3298 -0.4929 -0.3780
17928SOL    HW155225   1.573   5.312   4.619 -1.8306 -0.9451 -0.0072
17928SOL    HW255226   1.653   5.233   4.518  1.1949  0.7587  0.9351
17929SOL     OW55227   5.155   3.689   1.897  0.4513 -0.0275  0.9441
17929SOL    HW155228   5.122   3.601   1.878 -0.6519  0.2494  1.5056
17929SOL    HW255229   5.249   3.683   1.881  0.2105 -0.9687 -0.2362
17930SOL     OW55230   4.200   1.818   6.506 -0.4518  0.5194 -0.3929
17930SOL    HW155231   4.241   1.738   6.538 -1.7430  0.4644  1.2841
17930SOL    HW255232   4.142   1.788   6.435 -0.3409  0.0905 -0.3048
17931SOL     OW55233   4.105   0.333   6.870 -0.4929  0.0820  0.1086
17931SOL    HW155234   4.066   0.247   6.857  3.8825 -1.9545 -1.7574
17931SOL    HW255235   4.082   0.382   6.791 -0.3147 -0.6257 -0.3932
17932SOL     OW55236   3.887   7.027   5.898 -0.3557 -0.5083  0.1040
17932SOL    HW155237   3.922   7.079   5.971 -1.4035  0.1158  0.1762
17932SOL    HW255238   3.965   6.988   5.857  0.5222  1.5234 -0.2825
17933SOL     OW55239   4.981   2.293  12.425 -0.3970 -0.1894 -0.0414
17933SOL    HW155240   4.945   2.381  12.436  2.4798  1.1116 -0.0144
17933SOL    HW255241   4.930   2.255  12.354 -1.4987  1.6179 -0.2834
17934SOL     OW55242   7.613   1.371   7.078 -0.4218 -0.2283 -0.3751
17934SOL    HW155243   7.683   1.306   7.078 -0.4039 -0.2171  0.2897
17934SOL    HW255244   7.534   1.320   7.098 -0.8361 -0.4609 -2.4140
17935SOL     OW55245   4.102   1.619  11.176 -0.6232 -0.1400 -0.3100
17935SOL    HW155246   4.172   1.650  11.232  0.6447  0.3536 -2.0685
17935SOL    HW255247   4.089   1.528  11.202 -1.5340  0.6085  2.1290
17936SOL     OW55248   2.059   7.883   7.165 -0.2859 -0.2299 -0.0169
17936SOL    HW155249   2.079   7.797   7.128 -0.3826  0.1811 -1.0727
17936SOL    HW255250   1.970   7.874   7.200 -0.5186 -0.4128 -0.6341
17937SOL     OW55251   6.037   7.661  10.254 -0.4317 -0.1147  0.4304
17937SOL    HW155252   6.031   7.756  10.268 -1.3295 -0.0894  0.0010
17937SOL    HW255253   5.948   7.636  10.227  0.2440 -0.7534 -1.3922
17938SOL     OW55254   7.427   7.794   0.307  0.2699 -0.2854  0.3727
17938SOL    HW155255   7.477   7.871   0.335 -0.5046  0.1286  0.6415
17938SOL    HW255256   7.465   7.771   0.222  0.1722  0.7184  0.0426
17939SOL     OW55257   2.930   1.381   5.432  0.0789 -0.0242 -0.0901
17939SOL    HW155258   2.991   1.342   5.494  2.1005 -0.8915 -2.4449
17939SOL    HW255259   2.970   1.465   5.409  0.2978 -0.4632 -1.4287
17940SOL     OW55260   2.442   7.021   6.450 -0.3319 -0.0789 -0.0185
17940SOL    HW155261   2.505   7.071   6.501  2.0774 -1.9815 -0.9583
17940SOL    HW255262   2.435   7.068   6.367 -1.0763  0.7394  0.4840
17941SOL     OW55263   1.488   7.891   1.909 -0.7135 -0.1990  0.0573
17941SOL    HW155264   1.423   7.960   1.895 -0.0670  1.1236  2.8587
17941SOL    HW255265   1.543   7.894   1.831 -2.5286  0.2968 -1.2760
17942SOL     OW55266   7.579   6.609   4.011  0.4739  0.2050  0.0680
17942SOL    HW155267   7.538   6.589   3.927  2.5448 -0.6985 -0.7816
17942SOL    HW255268   7.518   6.573   4.076  0.2153 -1.7454 -1.1652
17943SOL     OW55269   6.068   2.707   2.661  0.1200 -0.0965  0.2880
17943SOL    HW155270   6.079   2.762   2.739  1.0826  0.9246 -0.5408
17943SOL    HW255271   6.124   2.747   2.595 -1.8288 -0.0188 -1.4249
17944SOL     OW55272   2.018   1.964   4.450 -0.6550  0.1919  0.2449
17944SOL    HW155273   2.042   1.967   4.543  0.0092  3.3662  0.0780
17944SOL    HW255274   2.095   1.927   4.406 -1.1727 -1.8340  0.9229
17945SOL     OW55275   7.240   4.924  10.471 -0.3745  0.5405 -0.3994
17945SOL    HW155276   7.329   4.957  10.464  0.0832  0.5966  3.6011
17945SOL    HW255277   7.184   5.001  10.469 -0.0072  0.8394  0.4741
17946SOL     OW55278   4.861   0.011   8.012  0.5097  0.4120 -0.2688
17946SOL    HW155279   4.871  -0.034   7.928 -1.1038 -0.6216  0.0327
17946SOL    HW255280   4.926   0.081   8.011  0.4773  0.4627 -2.4048
17947SOL     OW55281   7.960   4.791   9.057 -0.1742  0.3354 -0.0081
17947SOL    HW155282   7.874   4.821   9.088 -0.2188 -1.8280  2.2822
17947SOL    HW255283   7.984   4.855   8.990 -5.3496 -1.1525 -3.9770
17948SOL     OW55284   2.237   1.023   5.114 -0.5376  0.2114  0.0482
17948SOL    HW155285   2.288   1.103   5.120  0.9711 -0.6551 -0.5432
17948SOL    HW255286   2.239   1.001   5.020 -0.5939 -0.6990  0.2490
17949SOL     OW55287   0.195   0.588   9.332 -0.0628 -0.3737 -0.3830
17949SOL    HW155288   0.119   0.636   9.366 -0.8320 -1.9442  0.2015
17949SOL    HW255289   0.210   0.626   9.246 -2.1003 -0.6105 -0.9089
17950SOL     OW55290   1.560   4.541   3.695  0.2665  0.5485 -0.0977
17950SOL    HW155291   1.472   4.510   3.716  0.6592 -0.5864 -0.0312
17950SOL    HW255292   1.586   4.489   3.618  1.1425  0.3388  0.3223
17951SOL     OW55293   6.086   6.814   0.993 -0.3848  0.4666  0.3977
17951SOL    HW155294   6.169   6.859   1.006  0.9032 -1.7864  0.5091
17951SOL    HW255295   6.087   6.788   0.900 -1.4723  1.3203  0.1285
17952SOL     OW55296   3.455   6.821   8.372 -0.0886 -0.1974  0.4600
17952SOL    HW155297   3.506   6.886   8.324 -1.0871 -0.7058 -1.3556
17952SOL    HW255298   3.474   6.840   8.464  2.0277  0.6742 -0.1030
17953SOL     OW55299   2.044   1.521  10.135 -0.4734 -0.1252 -0.1330
17953SOL    HW155300   2.033   1.427  10.151  1.5125 -0.6375 -1.3378
17953SOL    HW255301   2.055   1.528  10.040  0.4107  1.1873  0.0378
17954SOL     OW55302   7.585   3.562   8.277 -0.4203  0.1960  0.1773
17954SOL    HW155303   7.650   3.493   8.266 -1.0334 -0.1021 -2.0481
17954SOL    HW255304   7.534   3.561   8.196 -1.4819  2.2013  0.7354
17955SOL     OW55305   4.306   1.816   4.889 -0.6403 -0.4870  0.0890
17955SOL    HW155306   4.390   1.810   4.934 -0.2288  0.2388 -0.5599
17955SOL    HW255307   4.270   1.728   4.893  0.6072 -1.0484 -0.4685
17956SOL     OW55308   5.861   7.748   2.846 -0.4002 -0.3121 -0.1964
17956SOL    HW155309   5.818   7.771   2.928  0.3471  1.2819 -0.1990
17956SOL    HW255310   5.809   7.676   2.811 -0.4420 -1.3597  1.8933
17957SOL     OW55311   4.995   2.709   6.509 -0.1735 -0.3880 -0.2198
17957SOL    HW155312   4.903   2.717   6.532 -0.0780 -2.1843  1.0653
17957SOL    HW255313   5.004   2.757   6.427 -1.8632  1.2812  0.5061
17958SOL     OW55314   0.731   3.707   2.907 -0.4264 -0.1146 -0.3105
17958SOL    HW155315   0.767   3.688   2.994  0.1354 -0.0041 -0.5182
17958SOL    HW255316   0.781   3.783   2.876 -1.4803  0.6506 -0.2079
17959SOL     OW55317   1.894   3.123   1.940 -0.1618  0.2621  0.9080
17959SOL    HW155318   1.984   3.139   1.913 -0.2734  0.6558  0.7549
17959SOL    HW255319   1.878   3.031   1.918  0.6352 -0.2083  2.2142
17960SOL     OW55320   0.865   6.577   6.019  0.3899 -0.2075  0.4920
17960SOL    HW155321   0.957   6.553   6.009 -0.0056 -1.7886  0.4345
17960SOL    HW255322   0.843   6.624   5.938  1.3068  0.7965  0.8034
17961SOL     OW55323   1.915   2.489  12.326 -0.3010  0.2154 -0.1025
17961SOL    HW155324   1.934   2.463  12.416  0.2911  0.2880 -0.2055
17961SOL    HW255325   1.953   2.420  12.272 -0.3258  0.3633 -0.3099
17962SOL     OW55326   0.261   3.384  12.040  0.9129 -1.0461 -0.0344
17962SOL    HW155327   0.304   3.464  12.011 -2.2799  0.2541 -1.6154
17962SOL    HW255328   0.249   3.396  12.134  0.3218  0.4517 -0.2791
17963SOL     OW55329   4.976   1.944   7.341  0.1122  0.3013  0.4191
17963SOL    HW155330   5.068   1.920   7.354  0.3236  0.0143 -1.3520
17963SOL    HW255331   4.958   1.922   7.250 -1.6447  0.6250  0.6503
17964SOL     OW55332   5.970   0.345  12.024 -0.3820  0.0315  0.3672
17964SOL    HW155333   5.914   0.296  11.964 -0.5582  1.6864 -0.8978
17964SOL    HW255334   6.059   0.318  12.002 -0.4251  0.8096 -0.8636
17965SOL     OW55335   3.326   7.016   8.118 -0.2291 -0.1131 -0.5042
17965SOL    HW155336   3.331   7.111   8.113  1.7181 -0.0130  1.6077
17965SOL    HW255337   3.346   6.996   8.210  0.7351 -2.6099 -1.1826
17966SOL     OW55338   1.865   0.715   7.682  0.3292  0.2750 -0.6109
17966SOL    HW155339   1.893   0.672   7.763 -0.4799  0.6582 -0.1155
17966SOL    HW255340   1.778   0.679   7.665 -0.6427  2.1576  0.1667
17967SOL     OW55341   1.974   2.243  12.072 -0.1477  0.4381 -0.4215
17967SOL    HW155342   1.998   2.251  11.980  1.2970  1.0216 -0.0247
17967SOL    HW255343   2.052   2.273  12.119 -0.6405 -0.4421  0.9966
17968SOL     OW55344   6.030   6.741   0.736  0.5091 -0.0097  0.4532
17968SOL    HW155345   5.941   6.708   0.746  0.3605  0.2034 -0.0928
17968SOL    HW255346   6.019   6.835   0.717  0.8969  0.2280  1.3772
17969SOL     OW55347   3.869   1.236  10.216  0.6136  0.1304  0.1811
17969SOL    HW155348   3.929   1.311  10.217  1.1360 -0.2687  1.7904
17969SOL    HW255349   3.782   1.275  10.214  0.8976  0.7807  0.2442
17970SOL     OW55350   1.464   2.341   0.680 -0.1461 -0.1319 -0.6807
17970SOL    HW155351   1.556   2.367   0.688 -0.7206  1.8959 -0.1074
17970SOL    HW255352   1.456   2.265   0.738  1.3138 -0.8229 -1.3294
17971SOL     OW55353   0.917   0.985  11.319 -0.5840 -0.8163 -0.2857
17971SOL    HW155354   0.825   0.962  11.304 -1.3284  0.9084  1.0751
17971SOL    HW255355   0.943   0.931  11.393 -1.1631  0.0311  0.5704
17972SOL     OW55356   2.559   1.221  10.401 -0.0452 -0.3685 -0.2267
17972SOL    HW155357   2.582   1.307  10.366  0.0374 -0.2628  0.0833
17972SOL    HW255358   2.563   1.163  10.326 -1.0293  0.0716 -0.6334
17973SOL     OW55359   1.346   1.047   6.003  0.0690  0.0783  0.4587
17973SOL    HW155360   1.369   1.055   5.911 -0.7441 -0.3244  0.2083
17973SOL    HW255361   1.272   1.107   6.014 -0.5221 -0.6554  0.5875
17974SOL     OW55362   6.514   0.957   6.017 -0.8862 -0.3926  0.0527
17974SOL    HW155363   6.558   0.966   6.102  0.7730 -0.3476 -0.7741
17974SOL    HW255364   6.512   1.046   5.982  1.3629 -0.7873 -1.3014
17975SOL     OW55365   7.438   5.922  12.144 -0.0940 -0.4308 -0.3300
17975SOL    HW155366   7.356   5.920  12.194 -0.3576  0.3805 -0.7149
17975SOL    HW255367   7.497   5.866  12.194 -1.1400 -1.7607 -0.5154
17976SOL     OW55368   4.879   7.055  11.778 -0.0181 -0.0438  0.3981
17976SOL    HW155369   4.952   6.993  11.777  0.7726  0.8770 -0.3967
17976SOL    HW255370   4.808   7.010  11.732  0.3478 -0.5820  0.3581
17977SOL     OW55371   5.808   7.799  11.130 -0.2788  0.1804 -0.0931
17977SOL    HW155372   5.814   7.846  11.047  0.2301 -0.6455 -0.5354
17977SOL    HW255373   5.889   7.747  11.134  0.4125  1.2757  1.5896
17978SOL     OW55374   2.004   0.634   7.891 -0.0494 -0.1336 -0.7995
17978SOL    HW155375   2.018   0.728   7.902  1.2295 -0.1927 -1.7531
17978SOL    HW255376   1.977   0.603   7.978  0.9068  0.8796 -0.1252
17979SOL     OW55377   1.325   2.844   9.447  0.1814  0.4574 -0.0239
17979SOL    HW155378   1.239   2.877   9.422 -0.8701 -0.7923  1.7502
17979SOL    HW255379   1.363   2.813   9.365 -1.6393 -0.2408 -0.6498
17980SOL     OW55380   2.542   3.046   0.818  0.5446  0.4760 -0.1894
17980SOL    HW155381   2.605   3.019   0.885  0.6549  2.8625  0.7515
17980SOL    HW255382   2.509   2.964   0.782  3.2119 -0.8634  0.1892
17981SOL     OW55383   4.654   7.287   3.970  0.0160  0.8098  0.1076
17981SOL    HW155384   4.698   7.331   4.042  1.5470  0.8190 -0.8003
17981SOL    HW255385   4.621   7.205   4.008  0.2974  1.0832  0.9458
17982SOL     OW55386   7.950   6.862   0.067 -0.7345  0.1136  0.2965
17982SOL    HW155387   7.898   6.791   0.105 -0.5385 -0.7986 -1.0593
17982SOL    HW255388   7.989   6.824  -0.012  0.1846  1.4447  0.0689
17983SOL     OW55389   5.174   2.184   4.624 -0.2069  0.5616  0.0340
17983SOL    HW155390   5.264   2.168   4.655  0.8760  1.2895 -2.5123
17983SOL    HW255391   5.145   2.099   4.591  0.1750  0.6685 -0.5954
17984SOL     OW55392   0.941   6.680   9.092 -0.3212  0.9395  0.1317
17984SOL    HW155393   1.006   6.664   9.160 -0.5651 -1.0816 -0.0468
17984SOL    HW255394   0.990   6.676   9.010 -0.1643  2.5688  0.1244
17985SOL     OW55395   1.993   0.133  10.282  0.1497 -0.3663  0.2230
17985SOL    HW155396   1.912   0.097  10.246 -0.5475  2.4658 -1.2745
17985SOL    HW255397   2.044   0.159  10.205  0.7165  1.5101  1.1772
17986SOL     OW55398   6.803   6.561   3.700  0.2156  0.1426  0.4494
17986SOL    HW155399   6.720   6.527   3.733 -0.8100  0.9053 -1.2454
17986SOL    HW255400   6.811   6.525   3.612  1.5615  0.2994  0.4958
17987SOL     OW55401   7.691   7.468   8.670 -0.1827 -0.6558  0.0854
17987SOL    HW155402   7.691   7.524   8.593  1.7927 -0.5285  0.1364
17987SOL    HW255403   7.655   7.384   8.640 -0.4156 -0.2848 -0.6887
17988SOL     OW55404   3.142   3.994   0.981 -0.1066  0.2196  0.0264
17988SOL    HW155405   3.137   3.928   0.913 -1.3849 -0.0393  0.3442
17988SOL    HW255406   3.059   3.987   1.028  1.1094 -0.3271  2.2867
17989SOL     OW55407   1.455   0.175   0.540 -0.0325 -0.3989  0.6967
17989SOL    HW155408   1.362   0.190   0.521 -0.0471 -2.8361 -1.7537
17989SOL    HW255409   1.493   0.150   0.456  2.6453 -0.4940  1.8384
17990SOL     OW55410   2.471   6.105  10.617  0.0484  0.0101  0.0972
17990SOL    HW155411   2.443   6.068  10.701 -0.1397  3.2270  1.6033
17990SOL    HW255412   2.391   6.138  10.577  0.2394 -0.8821 -1.0807
17991SOL     OW55413   0.159   5.545  10.024  0.0301 -0.0790  0.5433
17991SOL    HW155414   0.114   5.545   9.940 -0.7628  0.6209  0.9579
17991SOL    HW255415   0.168   5.637  10.047 -0.0218 -0.2660  1.3603
17992SOL     OW55416   0.173   0.362  11.617  0.4308  0.0912 -0.6662
17992SOL    HW155417   0.233   0.354  11.691  1.8931  0.8068 -1.7267
17992SOL    HW255418   0.180   0.454  11.591 -2.9920  0.8584  0.6606
17993SOL     OW55419   6.130   1.252   1.980  0.1063 -0.2458  0.1214
17993SOL    HW155420   6.164   1.337   2.007  0.4948 -0.0616 -0.9154
17993SOL    HW255421   6.203   1.210   1.934  0.6574 -2.0306  2.4001
17994SOL     OW55422   4.878   4.867   4.145  0.5961 -0.3978  0.5240
17994SOL    HW155423   4.903   4.817   4.223  0.2722  1.0863  1.6323
17994SOL    HW255424   4.932   4.946   4.150 -0.7294  0.5493  0.2312
17995SOL     OW55425   7.508   6.057   4.674  0.3575  0.1134  0.4621
17995SOL    HW155426   7.500   6.122   4.604 -2.7565  1.2661  1.7458
17995SOL    HW255427   7.560   6.101   4.742  0.6778  0.1664  0.1882
17996SOL     OW55428   6.786   3.590  11.606  0.2378 -0.3534  0.0459
17996SOL    HW155429   6.855   3.643  11.646  0.3207 -0.7060  0.3772
17996SOL    HW255430   6.786   3.509  11.656  0.7079 -1.0285 -1.0001
17997SOL     OW55431   7.596   0.372   8.043  0.3083  0.4704  0.0188
17997SOL    HW155432   7.578   0.279   8.048 -0.6181  0.4653 -2.2593
17997SOL    HW255433   7.523   0.413   8.089  0.4413  0.0952  0.5697
17998SOL     OW55434   4.591   7.854   0.837  0.6204 -0.0774  0.2755
17998SOL    HW155435   4.642   7.878   0.760 -0.3937  1.9962  0.2035
17998SOL    HW255436   4.581   7.759   0.830 -1.0598  0.2094 -3.2238
17999SOL     OW55437   4.968   0.048   4.218  0.5531 -0.0091  0.2567
17999SOL    HW155438   4.961   0.018   4.128  1.1727 -1.5627  0.6959
17999SOL    HW255439   5.060   0.037   4.241  0.1003 -1.3709  1.6248
18000SOL     OW55440   2.225   6.116   9.328 -0.3182  0.2836  0.4035
18000SOL    HW155441   2.160   6.052   9.357 -0.9757  0.6266 -0.2543
18000SOL    HW255442   2.306   6.067   9.321 -0.8104 -0.4839 -0.0598
18001SOL     OW55443   2.672   1.479   5.488  0.7615 -0.6602 -0.4809
18001SOL    HW155444   2.760   1.462   5.458  0.8672  0.0633 -0.5989
18001SOL    HW255445   2.669   1.443   5.577  1.4128 -0.0189 -0.1924
18002SOL     OW55446   5.446   3.510   0.762  0.1509  0.4763  0.1217
18002SOL    HW155447   5.455   3.441   0.828 -2.0031 -0.3404 -0.3811
18002SOL    HW255448   5.419   3.587   0.812  0.4027  0.3697  0.4241
18003SOL     OW55449   0.950   6.223   4.178  0.0841  0.9461  0.2662
18003SOL    HW155450   0.896   6.247   4.103  0.3415 -2.4887 -1.2365
18003SOL    HW255451   0.917   6.137   4.204  2.4923  0.3210  1.5776
18004SOL     OW55452   7.052   2.082  12.111  0.5237 -0.6659 -0.5211
18004SOL    HW155453   6.980   2.143  12.125  1.1369  0.3116 -1.4593
18004SOL    HW255454   7.107   2.124  12.045  2.0481 -1.2934  0.2814
18005SOL     OW55455   1.020   3.024   5.336 -0.2459 -0.5513 -0.3095
18005SOL    HW155456   1.096   3.082   5.342  0.4171 -1.5465  1.4162
18005SOL    HW255457   0.957   3.073   5.282  2.2736 -0.5114 -3.5032
18006SOL     OW55458   4.612   6.631   0.941  0.0726 -0.3417 -0.1029
18006SOL    HW155459   4.655   6.546   0.941 -0.3630 -0.5665  0.1150
18006SOL    HW255460   4.578   6.641   0.852  0.7581 -0.0615 -0.3432
18007SOL     OW55461   2.687   0.920   8.888  0.3774  0.1114 -0.1087
18007SOL    HW155462   2.734   0.845   8.851  0.5323  0.1427  0.0282
18007SOL    HW255463   2.667   0.975   8.812 -1.8730 -1.2299 -0.6072
18008SOL     OW55464   0.763   2.828   6.753  0.1633 -0.1131 -0.4085
18008SOL    HW155465   0.688   2.825   6.694  0.1191 -1.2077 -0.3259
18008SOL    HW255466   0.830   2.878   6.706  0.5414 -1.9091 -1.9137
18009SOL     OW55467   6.926   2.973   8.773  0.0323 -0.8981  0.3653
18009SOL    HW155468   6.919   2.893   8.721  1.0433 -0.8494  0.1306
18009SOL    HW255469   6.843   3.018   8.758 -0.0512 -1.3050 -0.5081
18010SOL     OW55470   1.855   1.897  10.033 -0.1636  0.3243  0.0273
18010SOL    HW155471   1.836   1.985  10.065 -0.9293 -0.3240  1.4413
18010SOL    HW255472   1.847   1.841  10.111  1.1755 -0.8761 -0.6596
18011SOL     OW55473   2.482   4.481   1.361  0.3715 -0.2393 -0.4875
18011SOL    HW155474   2.494   4.569   1.327 -0.6835 -0.0225 -0.3523
18011SOL    HW255475   2.424   4.492   1.437  2.1222 -0.7776  0.9977
18012SOL     OW55476   5.480   5.447   0.061 -0.0242  0.6308 -0.1296
18012SOL    HW155477   5.518   5.520   0.110  1.7469  0.3464 -1.0005
18012SOL    HW255478   5.400   5.483   0.023 -0.0430  1.6181  0.7845
18013SOL     OW55479   7.327   5.584   5.156 -0.0193  0.5189 -0.5829
18013SOL    HW155480   7.423   5.588   5.159 -0.0177  1.0222 -1.1855
18013SOL    HW255481   7.304   5.513   5.217  0.8086 -0.4954 -1.4130
18014SOL     OW55482   4.662   5.038   1.140  0.5584 -0.7947 -0.6131
18014SOL    HW155483   4.721   4.976   1.097  1.8026  0.1689 -0.3500
18014SOL    HW255484   4.702   5.123   1.125 -0.3509 -0.1962  0.2671
18015SOL     OW55485   4.944   5.923   0.533 -0.2862 -0.3426 -0.0686
18015SOL    HW155486   4.849   5.934   0.536 -0.1740  0.5917  0.1640
18015SOL    HW255487   4.966   5.883   0.617 -0.2127  1.6083  0.8739
18016SOL     OW55488   0.792   4.848   0.840 -0.0216  0.7741 -0.0003
18016SOL    HW155489   0.732   4.911   0.801 -0.0914  2.0169  2.0030
18016SOL    HW255490   0.745   4.764   0.835 -0.6448  1.1697 -1.1354
18017SOL     OW55491   0.406   0.231  10.450  0.0831 -0.1189  0.2060
18017SOL    HW155492   0.376   0.142  10.431 -0.8672  0.3049 -0.3867
18017SOL    HW255493   0.421   0.270  10.364  1.3837  0.0173  0.4804
18018SOL     OW55494   0.440   5.042   7.847 -0.1050  0.4689  0.1523
18018SOL    HW155495   0.388   5.104   7.798 -0.5982  0.5917  0.8093
18018SOL    HW255496   0.497   5.000   7.782  0.4195  1.7806 -0.2562
18019SOL     OW55497   3.361   7.314   3.755  0.1581 -0.2023 -0.0239
18019SOL    HW155498   3.427   7.328   3.822  1.4117 -2.3536 -0.7319
18019SOL    HW255499   3.344   7.220   3.756 -0.8562 -0.0899 -1.7371
18020SOL     OW55500   1.592   3.460   6.250  0.1029  0.0254 -0.4614
18020SOL    HW155501   1.574   3.369   6.228  0.4723  0.3098 -2.1123
18020SOL    HW255502   1.531   3.510   6.195 -1.6470  0.7736  2.0145
18021SOL     OW55503   2.875   6.294   5.918 -0.0068  0.4875  0.2237
18021SOL    HW155504   2.789   6.333   5.901 -0.8743 -0.2091  2.6674
18021SOL    HW255505   2.879   6.219   5.859 -0.6908  1.0050 -0.5089
18022SOL     OW55506   5.276   7.381   8.204 -0.6417 -0.4635 -0.5349
18022SOL    HW155507   5.300   7.343   8.288 -1.6808 -1.8925 -0.8443
18022SOL    HW255508   5.312   7.320   8.139  2.4239  1.8972 -1.3293
18023SOL     OW55509   3.594   4.198   6.842 -0.2268 -0.3221  0.3272
18023SOL    HW155510   3.525   4.145   6.802  0.4660 -0.0802 -1.2701
18023SOL    HW255511   3.570   4.289   6.821 -0.3735 -0.1021  1.3648
18024SOL     OW55512   0.211   7.820   9.137 -0.0377  0.2528  0.6462
18024SOL    HW155513   0.283   7.780   9.185 -1.4077 -1.5416  1.3352
18024SOL    HW255514   0.170   7.747   9.090 -2.5900  0.7936  1.8337
18025SOL     OW55515   4.882   4.206   1.531  0.5846  0.0003  0.3244
18025SOL    HW155516   4.945   4.175   1.596 -0.0183  0.4903  1.1477
18025SOL    HW255517   4.937   4.243   1.461  1.2157  0.1587  0.8921
18026SOL     OW55518   3.725   3.074   3.671  0.0237 -0.0536  0.3821
18026SOL    HW155519   3.749   2.981   3.676  0.5028  0.1006  1.1046
18026SOL    HW255520   3.630   3.073   3.660 -0.0031 -0.6292  0.5983
18027SOL     OW55521   1.244   3.847   4.913 -0.2667 -0.2766  0.3138
18027SOL    HW155522   1.190   3.903   4.857 -0.4016 -0.5663  0.1507
18027SOL    HW255523   1.193   3.766   4.922 -0.2461 -0.2284  0.8619
18028SOL     OW55524   7.354   3.435   6.980 -0.0567 -0.2533 -0.2003
18028SOL    HW155525   7.267   3.397   6.997  0.7673 -1.4367  1.8407
18028SOL    HW255526   7.403   3.364   6.937  0.2695 -0.0437 -0.1787
18029SOL     OW55527   0.014   6.677   3.471  0.2694 -0.3493  0.4110
18029SOL    HW155528   0.077   6.687   3.400  0.0843 -1.8877 -0.0150
18029SOL    HW255529   0.003   6.765   3.507  1.3798  0.2216 -0.5946
18030SOL     OW55530   2.284   2.333   6.586 -0.2190  0.3185 -0.3337
18030SOL    HW155531   2.198   2.360   6.618  0.0101  0.3349  0.2858
18030SOL    HW255532   2.291   2.372   6.499 -0.5531  0.9077 -0.0993
18031SOL     OW55533   5.718   0.777   7.441  0.2148 -0.1226 -0.4520
18031SOL    HW155534   5.719   0.773   7.537  1.5607  0.9509 -0.4031
18031SOL    HW255535   5.810   0.777   7.416 -0.0389  1.9601 -1.6038
18032SOL     OW55536   6.433   3.364  11.041 -0.1581 -0.3395  0.6423
18032SOL    HW155537   6.506   3.390  10.984  2.8062 -1.3562  3.6406
18032SOL    HW255538   6.386   3.446  11.058  1.1238  0.6394 -0.2993
18033SOL     OW55539   6.685   3.276   4.098  0.6598  0.3754  0.0865
18033SOL    HW155540   6.687   3.297   4.004 -0.3137 -0.7100 -0.2097
18033SOL    HW255541   6.743   3.340   4.138  1.3329  0.6814 -1.2962
18034SOL     OW55542   6.923   3.479   6.380  0.3523 -0.3809 -0.3541
18034SOL    HW155543   7.012   3.444   6.377 -0.0042 -1.5104  0.9570
18034SOL    HW255544   6.885   3.458   6.295  1.2614 -0.0789 -0.8461
18035SOL     OW55545   5.986   4.764  10.965 -0.0720  0.0614  0.2325
18035SOL    HW155546   5.981   4.688  10.906 -1.6867 -0.3460  0.8264
18035SOL    HW255547   5.919   4.824  10.931  0.4022  0.7204  0.4521
18036SOL     OW55548   3.223   5.444   7.526 -0.4338 -0.2832 -0.3427
18036SOL    HW155549   3.150   5.492   7.488  0.6227 -0.1807 -2.3709
18036SOL    HW255550   3.301   5.496   7.505  0.4049 -1.2096  0.3326
18037SOL     OW55551   0.664   2.010   8.605 -0.5105 -0.4319  0.1422
18037SOL    HW155552   0.618   1.955   8.668 -0.5680 -0.6427 -0.0808
18037SOL    HW255553   0.640   1.974   8.520 -0.2234 -0.3167  0.0101
18038SOL     OW55554   3.507   1.530   0.581 -0.2112 -0.1775 -0.4604
18038SOL    HW155555   3.598   1.526   0.552  0.0260  1.3141  0.0278
18038SOL    HW255556   3.461   1.468   0.524  1.2266 -1.5319 -0.2066
18039SOL     OW55557   3.353   1.714   8.511 -0.0673  0.0376  0.0430
18039SOL    HW155558   3.299   1.681   8.582 -0.7863 -0.7144 -0.8304
18039SOL    HW255559   3.429   1.656   8.510 -0.4666 -0.4796 -0.3452
18040SOL     OW55560   4.377   0.625  11.239 -0.0566 -0.3085 -0.2702
18040SOL    HW155561   4.432   0.558  11.280 -0.3765 -0.1759  0.3990
18040SOL    HW255562   4.288   0.605  11.270  0.0302  1.2994  1.1841
18041SOL     OW55563   6.563   7.290   6.194  0.2330  0.4061 -0.5622
18041SOL    HW155564   6.553   7.380   6.225 -2.4298  0.3600 -1.0578
18041SOL    HW255565   6.568   7.297   6.099 -1.5120 -0.0017 -0.7183
18042SOL     OW55566   7.787   1.078   0.760  0.5329 -0.4654 -0.5652
18042SOL    HW155567   7.716   1.087   0.824  0.4904 -0.0375 -0.6671
18042SOL    HW255568   7.822   1.167   0.752 -0.6297 -0.1199 -2.4566
18043SOL     OW55569   4.130   4.784   0.749 -0.2980  0.1479  0.1556
18043SOL    HW155570   4.175   4.750   0.826 -1.3612  0.9866  1.1923
18043SOL    HW255571   4.038   4.789   0.776 -0.4846  1.7554 -0.6941
18044SOL     OW55572   2.001   2.921   9.925 -0.0352 -0.1942 -0.3011
18044SOL    HW155573   2.084   2.904   9.880  0.3425 -1.1394  0.6990
18044SOL    HW255574   2.018   2.999   9.978  0.2074 -0.3779 -0.1102
18045SOL     OW55575   7.670   4.898   7.930 -0.5734 -0.2385 -0.2827
18045SOL    HW155576   7.661   4.834   8.001  1.3692  0.4388  0.6417
18045SOL    HW255577   7.738   4.862   7.873  0.0237  0.6301 -0.1415
18046SOL     OW55578   1.909   2.206   4.113  0.3822 -0.4239 -0.2608
18046SOL    HW155579   1.966   2.228   4.186  0.2065 -0.9018  0.0306
18046SOL    HW255580   1.820   2.220   4.147  0.2811 -1.1900 -0.1923
18047SOL     OW55581   6.966   4.742  12.034 -0.0573 -1.4217  0.5276
18047SOL    HW155582   6.914   4.796  11.975 -2.5432  1.1242  4.5327
18047SOL    HW255583   6.928   4.655  12.027 -1.1536 -0.8774 -0.6651
18048SOL     OW55584   1.044   4.733   7.988  0.2325 -0.1313 -0.1345
18048SOL    HW155585   0.983   4.686   8.045 -0.2326  0.6890  0.0539
18048SOL    HW255586   1.127   4.733   8.036  0.3545 -1.0947 -0.3141
18049SOL     OW55587   3.865   0.532   9.771 -0.1117  0.1235  0.0242
18049SOL    HW155588   3.937   0.513   9.710  0.8863  2.6661  0.2485
18049SOL    HW255589   3.907   0.541   9.856 -1.2724 -1.8128  0.8670
18050SOL     OW55590   1.557   0.775   5.866 -0.0982 -0.1269  0.1067
18050SOL    HW155591   1.499   0.849   5.884 -0.4684 -0.2273 -0.6236
18050SOL    HW255592   1.607   0.802   5.788  1.5124  0.3341  1.2496
18051SOL     OW55593   4.195   5.138  10.228  0.2652  0.0030 -1.0311
18051SOL    HW155594   4.143   5.135  10.308  0.7674 -1.2503 -0.7288
18051SOL    HW255595   4.205   5.046  10.202 -0.2527  0.3909 -2.7749
18052SOL     OW55596   4.427   7.441   3.961 -0.1887 -0.1521 -0.5666
18052SOL    HW155597   4.509   7.391   3.961 -1.7766 -2.9511  0.1336
18052SOL    HW255598   4.364   7.385   4.007 -2.1722  2.5333  0.2763
18053SOL     OW55599   2.102   3.018   8.114  0.1969  0.0577 -0.0847
18053SOL    HW155600   2.155   2.963   8.056  2.1250 -0.0193  1.6488
18053SOL    HW255601   2.110   2.977   8.200 -1.7004  0.7851  0.4883
18054SOL     OW55602   4.058   0.149   1.023  0.3208  1.0164  0.0539
18054SOL    HW155603   4.143   0.123   0.988 -1.2384 -0.8153 -2.6890
18054SOL    HW255604   4.053   0.105   1.108  1.4000 -0.3758 -0.5593
18055SOL     OW55605   1.506   7.887   2.937 -0.2758 -0.0681 -0.0996
18055SOL    HW155606   1.437   7.843   2.888 -0.5341  1.2430 -0.9471
18055SOL    HW255607   1.513   7.974   2.898  0.6317  0.4550  1.1371
18056SOL     OW55608   0.518   7.504   4.219  0.6302  0.4279  0.1388
18056SOL    HW155609   0.502   7.596   4.197 -0.1900  0.6677  1.6126
18056SOL    HW255610   0.437   7.475   4.260 -0.5757 -2.0873 -3.5255
18057SOL     OW55611   7.146   1.392  11.886 -0.1574 -0.0930 -0.0210
18057SOL    HW155612   7.063   1.344  11.879 -0.4051  0.4636 -1.0570
18057SOL    HW255613   7.213   1.325  11.877 -0.5039 -0.3129 -1.0930
18058SOL     OW55614   2.705   0.345   2.221  0.3850  0.2826 -0.6000
18058SOL    HW155615   2.630   0.289   2.205  0.0997  0.0239  1.4450
18058SOL    HW255616   2.673   0.412   2.281  1.6646  0.4493 -0.0692
18059SOL     OW55617   7.678   7.632   3.905 -0.0824  0.3515  0.0539
18059SOL    HW155618   7.613   7.682   3.855  0.2114  1.8439  1.0677
18059SOL    HW255619   7.665   7.661   3.996  0.2923 -1.2597  0.6481
18060SOL     OW55620   4.145   1.520   3.647 -0.0370  0.2227 -0.8376
18060SOL    HW155621   4.086   1.448   3.670 -1.0292  0.4931 -2.4311
18060SOL    HW255622   4.227   1.477   3.623 -0.5242 -0.3608 -1.4702
18061SOL     OW55623   6.233   6.408  12.095 -0.5922 -0.1149  0.4588
18061SOL    HW155624   6.303   6.469  12.071 -0.6204 -0.2528  0.0268
18061SOL    HW255625   6.186   6.392  12.013 -2.7246  1.9837  1.1301
18062SOL     OW55626   4.399   0.914   2.408 -0.3422  0.1988  0.1808
18062SOL    HW155627   4.371   0.827   2.437 -0.6989 -0.1481 -1.1434
18062SOL    HW255628   4.373   0.972   2.480 -1.0193 -0.6463  0.6448
18063SOL     OW55629   0.959   0.800  10.285 -1.0778  1.0461 -0.2745
18063SOL    HW155630   0.950   0.786  10.379 -0.2860 -0.4391 -0.3825
18063SOL    HW255631   0.962   0.711  10.248  1.4759  1.5291 -1.4157
18064SOL     OW55632   4.261   0.489   1.344 -0.3626 -0.6245  0.5909
18064SOL    HW155633   4.204   0.464   1.271 -0.8551  0.9010  0.4162
18064SOL    HW255634   4.203   0.494   1.420 -0.8043  2.1806  0.1675
18065SOL     OW55635   7.499   1.393   0.697  0.2950  0.6128 -0.2731
18065SOL    HW155636   7.524   1.313   0.651 -0.2578  0.7435 -0.8145
18065SOL    HW255637   7.571   1.454   0.681  0.2998  0.5182 -0.6042
18066SOL     OW55638   0.076   2.318   3.087  0.7914 -0.9572 -0.0043
18066SOL    HW155639   0.076   2.293   3.179 -0.3968  0.0839  0.3070
18066SOL    HW255640   0.150   2.270   3.049  1.5281 -1.1085  1.5549
18067SOL     OW55641   2.152   4.009   0.458  0.0820  0.8551  0.3454
18067SOL    HW155642   2.199   4.081   0.417  1.0573 -0.1208 -0.2975
18067SOL    HW255643   2.066   4.010   0.415  0.2788  1.2859 -0.0544
18068SOL     OW55644   6.059   0.419  11.555 -0.4694  0.0910  0.7351
18068SOL    HW155645   6.072   0.490  11.618 -0.4674  0.4177  0.3751
18068SOL    HW255646   6.009   0.460  11.484  0.8832  0.1521 -0.2096
18069SOL     OW55647   4.922   1.236   7.651  0.1085 -0.0186 -0.3464
18069SOL    HW155648   4.983   1.308   7.638 -1.2440  1.2706  0.1695
18069SOL    HW255649   4.964   1.179   7.715  0.2979  1.4577  0.8991
18070SOL     OW55650   1.128   1.919   7.073  0.2847 -0.2232  0.3100
18070SOL    HW155651   1.033   1.917   7.063  0.3823 -0.3869 -0.6158
18070SOL    HW255652   1.157   1.987   7.013  0.8134 -0.6539  0.0697
18071SOL     OW55653   4.309   4.413   3.683 -0.5696 -0.1900  0.4438
18071SOL    HW155654   4.280   4.388   3.770 -0.5657 -0.1271  0.4636
18071SOL    HW255655   4.331   4.506   3.691  1.0415 -0.5721  0.8028
18072SOL     OW55656   7.300   2.831   0.327 -0.6064 -0.2083 -0.3477
18072SOL    HW155657   7.346   2.750   0.348 -0.3380  0.2018  0.7258
18072SOL    HW255658   7.303   2.882   0.408  1.0907  1.7944 -1.5582
18073SOL     OW55659   4.975   7.355  10.058 -0.0538  0.2480 -0.3630
18073SOL    HW155660   4.992   7.312   9.974  1.0442  0.1423 -0.1077
18073SOL    HW255661   4.895   7.315  10.090 -0.3397  0.1029 -1.2426
18074SOL     OW55662   2.649   4.381   7.071 -0.3477  0.3145 -0.1324
18074SOL    HW155663   2.657   4.443   7.143 -1.3658  1.2829 -0.8197
18074SOL    HW255664   2.716   4.314   7.089  0.5761  1.4449  0.7707
18075SOL     OW55665   4.273   6.327   2.440  0.1060  0.1159 -0.0456
18075SOL    HW155666   4.316   6.315   2.356  0.1875 -0.0964  0.0275
18075SOL    HW255667   4.195   6.271   2.436 -0.7936  1.3625 -0.6236
18076SOL     OW55668   2.995   0.786  11.599  0.3449 -0.1228  0.0652
18076SOL    HW155669   2.992   0.738  11.681  0.5492 -0.5531 -0.1719
18076SOL    HW255670   3.052   0.861  11.617 -1.7592  1.3313  1.0821
18077SOL     OW55671   3.128   3.156   4.526  0.4105  0.1951 -0.0248
18077SOL    HW155672   3.135   3.098   4.449  1.0963  0.1769  0.0478
18077SOL    HW255673   3.121   3.244   4.489  1.2934  0.2363 -0.1020
18078SOL     OW55674   7.202   1.773   3.280  0.0059  0.1268  0.0088
18078SOL    HW155675   7.117   1.816   3.290  1.0068  1.6646  3.1856
18078SOL    HW255676   7.188   1.684   3.312 -0.6970 -0.0403 -0.7461
18079SOL     OW55677   1.793   0.227  10.670 -0.0019  0.1658  0.1343
18079SOL    HW155678   1.759   0.146  10.706  1.0143 -1.2621 -1.9226
18079SOL    HW255679   1.859   0.200  10.606 -1.1604  2.4460 -2.2830
18080SOL     OW55680   6.268   7.380   5.759  0.1007  0.1962  0.2328
18080SOL    HW155681   6.172   7.388   5.761  0.1970  1.3695  0.8829
18080SOL    HW255682   6.289   7.362   5.667 -0.9638 -3.5796  0.5691
18081SOL     OW55683   1.314   5.209   3.807  0.1903 -0.0398  0.4902
18081SOL    HW155684   1.283   5.232   3.895 -1.2872  0.2861 -0.0819
18081SOL    HW255685   1.287   5.283   3.752  1.2829 -0.1440 -0.2149
18082SOL     OW55686   0.502   6.214   4.825  0.2277  0.1334 -0.0178
18082SOL    HW155687   0.508   6.227   4.919 -1.6150  0.7307  0.0508
18082SOL    HW255688   0.459   6.292   4.792 -0.4564 -0.6909 -1.1648
18083SOL     OW55689   5.093   6.308   5.556  0.5136 -0.0753  0.0341
18083SOL    HW155690   5.080   6.215   5.538 -0.1367  0.0620 -0.2235
18083SOL    HW255691   5.188   6.320   5.558  0.6002 -0.7860  0.2913
18084SOL     OW55692   6.802   5.714   1.145 -0.1859  0.3735  0.1181
18084SOL    HW155693   6.815   5.709   1.050 -0.0173 -0.8416  0.1877
18084SOL    HW255694   6.709   5.730   1.155 -0.6522 -1.7297 -0.2604
18085SOL     OW55695   3.902   6.601   8.736 -0.0433 -0.2519 -0.0227
18085SOL    HW155696   3.933   6.670   8.677 -1.2413  1.3496  1.1106
18085SOL    HW255697   3.960   6.607   8.812 -1.2466  0.8229  0.8669
18086SOL     OW55698   3.799   7.816  12.321 -0.2612  0.2322  0.2102
18086SOL    HW155699   3.706   7.828  12.339 -0.4374 -2.4686  1.7403
18086SOL    HW255700   3.803   7.744  12.258  0.7947  2.0459 -1.9271
18087SOL     OW55701   0.644   0.122   6.939 -0.0709 -0.2740 -0.2041
18087SOL    HW155702   0.697   0.195   6.973  2.5814 -1.8046 -0.7627
18087SOL    HW255703   0.662   0.050   6.999  0.2477 -1.4655 -1.6918
18088SOL     OW55704   1.444   0.557   4.973  0.3428 -0.4307 -0.0756
18088SOL    HW155705   1.423   0.480   4.920 -0.4484  1.1232 -2.1451
18088SOL    HW255706   1.415   0.534   5.061 -0.9949 -2.0381 -0.8812
18089SOL     OW55707   7.280   3.305  10.123 -0.5305 -0.2601  0.3680
18089SOL    HW155708   7.293   3.368  10.053 -1.7083 -0.8509 -0.4099
18089SOL    HW255709   7.185   3.291  10.126 -0.5298 -0.1830  2.1396
18090SOL     OW55710   6.456   1.976   0.627 -0.9896 -0.5320  0.3883
18090SOL    HW155711   6.522   1.917   0.591 -2.0172 -1.2216 -0.4274
18090SOL    HW255712   6.495   2.009   0.708  0.0186 -1.5525  0.3468
18091SOL     OW55713   7.714   1.897   3.119 -0.1058 -0.2235 -0.8958
18091SOL    HW155714   7.762   1.899   3.202  0.6508  0.5711 -1.3285
18091SOL    HW255715   7.668   1.981   3.116  2.6531  1.3644 -2.8122
18092SOL     OW55716   0.067   2.436   9.730 -0.1663 -0.2440  0.2583
18092SOL    HW155717   0.107   2.361   9.686 -0.6461 -0.9675  1.0165
18092SOL    HW255718  -0.027   2.419   9.727 -0.3961  1.0597 -0.8341
18093SOL     OW55719   0.751   4.463   6.161  0.2929 -0.0966 -0.3115
18093SOL    HW155720   0.715   4.411   6.089 -0.0034 -0.0703 -0.1874
18093SOL    HW255721   0.727   4.413   6.240  1.1082 -0.4181 -0.2619
18094SOL     OW55722   5.805   6.151   8.799 -0.0864  0.0015 -0.2689
18094SOL    HW155723   5.854   6.231   8.821  1.1163 -1.2025  1.7295
18094SOL    HW255724   5.730   6.182   8.749  0.1144  2.4468  0.7948
18095SOL     OW55725   3.433   1.756   6.517 -0.1071  0.0293  0.1247
18095SOL    HW155726   3.353   1.745   6.466 -0.1003 -1.2026  0.3438
18095SOL    HW255727   3.504   1.742   6.455 -0.0452  1.2330 -0.0935
18096SOL     OW55728   3.032   5.520   9.248  0.0657 -0.7637  0.0733
18096SOL    HW155729   3.008   5.539   9.158  1.7095  1.1929 -0.0211
18096SOL    HW255730   3.117   5.475   9.242 -0.5735 -2.1065  0.6154
18097SOL     OW55731   3.570   2.890   8.010 -0.6222 -0.8460  0.1464
18097SOL    HW155732   3.600   2.981   8.012  0.5898 -1.2312  0.6243
18097SOL    HW255733   3.586   2.861   7.920  1.2797 -1.2685  0.5596
18098SOL     OW55734   1.711   4.548   9.370  0.5460 -0.0340 -0.3996
18098SOL    HW155735   1.697   4.632   9.325 -0.2605 -0.8601 -1.7529
18098SOL    HW255736   1.691   4.566   9.462 -1.4741  0.8304 -0.9599
18099SOL     OW55737   7.046   7.063   9.999 -0.3113 -0.3567  0.0346
18099SOL    HW155738   7.073   7.121   9.928 -0.5317 -0.1421  0.1230
18099SOL    HW255739   7.072   6.976   9.971  4.0441  0.1603  1.7588
18100SOL     OW55740   3.694   0.190   3.427 -0.1431 -0.3786 -0.2548
18100SOL    HW155741   3.666   0.105   3.392  2.8051 -1.2427 -0.7701
18100SOL    HW255742   3.671   0.187   3.520 -1.4179 -1.0902 -0.5668
18101SOL     OW55743   3.564   0.734   1.563  0.1947  0.5246 -0.0398
18101SOL    HW155744   3.635   0.669   1.569 -0.1878  0.0292 -0.6971
18101SOL    HW255745   3.493   0.688   1.518 -0.8123  0.8012  1.2126
18102SOL     OW55746   4.923   0.799   9.429 -0.0515  0.5717  0.2313
18102SOL    HW155747   4.907   0.705   9.429 -1.6295  0.8014  1.0125
18102SOL    HW255748   5.003   0.810   9.481 -1.1492 -0.1984  2.1937
18103SOL     OW55749   0.759   2.561   9.261 -0.1844 -0.1144 -0.0980
18103SOL    HW155750   0.757   2.469   9.289  0.1528 -0.0619  0.0978
18103SOL    HW255751   0.789   2.558   9.171 -0.9757 -0.2609 -0.3624
18104SOL     OW55752   2.410   6.557  12.100 -0.1829  0.6631  0.1702
18104SOL    HW155753   2.374   6.633  12.055  0.5030  1.0644  0.2842
18104SOL    HW255754   2.418   6.490  12.032  0.5210  1.1523 -0.2480
18105SOL     OW55755   6.961   1.412   0.195  0.2732  0.2199 -0.8233
18105SOL    HW155756   6.954   1.436   0.287  0.7049 -1.1664 -0.4092
18105SOL    HW255757   7.055   1.414   0.177  0.1786  0.6586 -1.2875
18106SOL     OW55758   5.329   5.487   5.519  0.3728 -0.1843  0.4325
18106SOL    HW155759   5.330   5.392   5.515  1.6908 -0.2273  1.4119
18106SOL    HW255760   5.274   5.508   5.594  0.0930 -0.1698  0.2246
18107SOL     OW55761   5.789   1.929   3.093 -0.2282  0.3898 -0.2004
18107SOL    HW155762   5.776   1.917   3.187 -1.2960  2.1285 -0.0820
18107SOL    HW255763   5.703   1.955   3.060  0.0050 -0.6860 -1.7701
18108SOL     OW55764   1.073   7.380   1.327  0.6614  0.6747  0.3249
18108SOL    HW155765   1.136   7.319   1.288 -0.0932  0.1565 -0.1195
18108SOL    HW255766   1.063   7.450   1.262  0.1733  0.3340  0.0218
18109SOL     OW55767   7.749   4.346   4.835 -0.5888 -0.1426 -0.2931
18109SOL    HW155768   7.692   4.271   4.851 -0.4132  0.0258  1.2313
18109SOL    HW255769   7.785   4.368   4.921  1.8865 -0.3310 -1.1952
18110SOL     OW55770   3.626   4.741   4.218  0.2381  0.4527  0.1321
18110SOL    HW155771   3.586   4.823   4.188 -0.5578  0.0461  0.0634
18110SOL    HW255772   3.719   4.761   4.223  0.5071  0.4787 -2.9482
18111SOL     OW55773   4.794   1.327   3.625 -0.1445 -0.2404 -0.2601
18111SOL    HW155774   4.804   1.422   3.613 -0.3988 -0.3697 -1.5984
18111SOL    HW255775   4.875   1.300   3.668  0.0488  0.5416 -0.1128
18112SOL     OW55776   6.652   1.220  11.293 -0.4447  0.3538 -0.0349
18112SOL    HW155777   6.691   1.162  11.359  2.3115 -0.3807 -2.1141
18112SOL    HW255778   6.669   1.308  11.327  1.9175  0.0234 -0.1633
18113SOL     OW55779   3.254   2.477   3.811 -0.2220  0.0421 -0.0201
18113SOL    HW155780   3.174   2.530   3.817  1.3133  2.5395 -0.3144
18113SOL    HW255781   3.276   2.457   3.902 -1.2287 -0.7714  0.0585
18114SOL     OW55782   5.023   5.529   2.398 -0.6574 -0.3346  0.3533
18114SOL    HW155783   5.051   5.489   2.480 -1.0378 -0.2377  0.5331
18114SOL    HW255784   5.012   5.456   2.338 -0.8544 -0.4525  0.5323
18115SOL     OW55785   1.326   7.411   3.381  0.2143 -0.0950 -0.6189
18115SOL    HW155786   1.415   7.428   3.353  0.4794  0.1554  0.3360
18115SOL    HW255787   1.334   7.386   3.474 -0.6379 -0.7023 -0.6923
18116SOL     OW55788   3.372   2.101   9.304 -0.2549  0.1989  0.0735
18116SOL    HW155789   3.294   2.050   9.326 -0.5551  1.4210  2.1298
18116SOL    HW255790   3.443   2.037   9.300 -0.9091 -0.6006  0.8803
18117SOL     OW55791   1.868   2.163   0.257 -0.0637  0.2660  0.4372
18117SOL    HW155792   1.869   2.168   0.162 -0.6492 -0.0436  0.4133
18117SOL    HW255793   1.895   2.074   0.277  0.9988  0.5984  0.6016
18118SOL     OW55794   3.425   1.345   6.769  0.4155  0.2463  0.1076
18118SOL    HW155795   3.441   1.439   6.756  0.1762 -0.0224 -2.7460
18118SOL    HW255796   3.349   1.341   6.825 -0.8261  1.8576 -1.3498
18119SOL     OW55797   7.487   4.864   4.879 -0.3391 -0.1942 -0.1286
18119SOL    HW155798   7.533   4.788   4.841 -1.2569 -0.5788 -0.5176
18119SOL    HW255799   7.397   4.855   4.847 -0.4339  1.1415 -0.2830
18120SOL     OW55800   6.406   6.561  11.949 -0.6817 -0.0724 -0.1110
18120SOL    HW155801   6.330   6.564  11.890  0.2989 -3.3810 -1.8082
18120SOL    HW255802   6.474   6.610  11.903 -0.2376 -1.7593 -1.3491
18121SOL     OW55803   4.495   0.814   0.687 -0.0392 -0.4267  0.2043
18121SOL    HW155804   4.424   0.813   0.623  0.5490 -2.6565 -0.4984
18121SOL    HW255805   4.553   0.884   0.657 -1.0573  0.2862 -0.1798
18122SOL     OW55806   1.744   4.213   0.171  0.2877  0.3931  0.8527
18122SOL    HW155807   1.661   4.229   0.215  0.3684 -2.3362  2.1902
18122SOL    HW255808   1.724   4.225   0.078 -1.7633 -0.6671  1.0948
18123SOL     OW55809   0.655   6.101  11.587 -0.3556 -0.6362  0.3112
18123SOL    HW155810   0.702   6.184  11.590  0.0675 -0.8861  0.5788
18123SOL    HW255811   0.607   6.098  11.670 -0.0465 -0.8515  0.4813
18124SOL     OW55812   7.774   7.902   4.958  0.3853 -0.1381 -0.1173
18124SOL    HW155813   7.775   7.951   4.876  0.3541 -0.3342 -0.2346
18124SOL    HW255814   7.688   7.920   4.996  0.2647 -0.3359 -0.2991
18125SOL     OW55815   3.285   1.105   1.201 -0.3835 -0.0479  0.2015
18125SOL    HW155816   3.241   1.129   1.119 -0.5258  0.3538  0.3908
18125SOL    HW255817   3.378   1.108   1.179 -0.4167  0.1509  0.0762
18126SOL     OW55818   6.544   7.833  11.233  0.4735 -0.7505  0.5384
18126SOL    HW155819   6.453   7.853  11.256  0.3318 -1.4538  0.5862
18126SOL    HW255820   6.552   7.739  11.242  0.2983 -1.1936 -2.6392
18127SOL     OW55821   4.009   5.956  10.469 -0.5400  0.5601 -0.2890
18127SOL    HW155822   4.065   5.882  10.445 -0.9218  0.2782 -0.3216
18127SOL    HW255823   3.928   5.943  10.418 -0.8399  0.6788  0.1487
18128SOL     OW55824   2.196   2.087  10.881 -0.6768  0.4250  0.2010
18128SOL    HW155825   2.174   2.146  10.809 -1.0253  1.6143  1.2570
18128SOL    HW255826   2.268   2.034  10.846 -0.3899  1.4192 -0.7999
18129SOL     OW55827   2.915   7.464   7.049 -0.7179  0.1327 -0.7388
18129SOL    HW155828   2.868   7.443   7.130 -1.1495 -0.4269 -1.1236
18129SOL    HW255829   2.855   7.437   6.979 -1.5052  3.0651 -1.3150
18130SOL     OW55830   5.572   3.615   2.614  0.4952  0.4556  0.7426
18130SOL    HW155831   5.526   3.546   2.565  0.8027  0.9544 -0.2837
18130SOL    HW255832   5.580   3.687   2.551  2.1806  0.5861  1.0745
18131SOL     OW55833   7.212   7.278   5.156  0.2575 -0.2361 -0.3433
18131SOL    HW155834   7.174   7.278   5.069 -0.1328 -0.1705 -0.1722
18131SOL    HW255835   7.162   7.343   5.205  1.0479  0.3650 -0.3157
18132SOL     OW55836   3.121   6.224  10.399  0.0879  0.3923 -0.1573
18132SOL    HW155837   3.123   6.300  10.458 -0.3993  0.3797 -0.1225
18132SOL    HW255838   3.202   6.177  10.418 -0.4666 -0.0948  1.1368
18133SOL     OW55839   1.918   7.296   2.055  0.4152  0.7741 -0.4788
18133SOL    HW155840   2.008   7.274   2.078 -0.1303 -0.9415  0.1845
18133SOL    HW255841   1.898   7.239   1.981 -0.4408  0.3804  0.0399
18134SOL     OW55842   1.092   2.884   9.842 -0.4888 -0.3541  0.7644
18134SOL    HW155843   1.060   2.820   9.778 -0.6106 -0.1549  0.6261
18134SOL    HW255844   1.024   2.885   9.910 -0.0608 -1.0306  1.2203
18135SOL     OW55845   3.337   5.135  11.140 -0.6225  0.0718  0.2707
18135SOL    HW155846   3.315   5.103  11.053  2.3589  0.0309 -0.5810
18135SOL    HW255847   3.333   5.057  11.195 -0.0667 -0.4222 -0.3740
18136SOL     OW55848   1.304   4.467  12.229  0.3320  0.0918 -0.5773
18136SOL    HW155849   1.300   4.504  12.141  0.2018  0.8816 -0.2520
18136SOL    HW255850   1.285   4.541  12.286  1.3204 -0.2052  0.1606
18137SOL     OW55851   0.901   4.468   1.729  0.4074 -0.2616  0.0304
18137SOL    HW155852   0.973   4.469   1.792  1.5938 -0.0644 -1.2915
18137SOL    HW255853   0.823   4.448   1.782  0.9624  2.2472  1.9570
18138SOL     OW55854   1.263   0.617   6.170 -0.5833 -0.0171  0.1016
18138SOL    HW155855   1.316   0.595   6.247 -0.8178  0.0605  0.2853
18138SOL    HW255856   1.183   0.566   6.181 -0.9755  0.6422  0.3389
18139SOL     OW55857   1.871   5.716   2.230 -0.0193  0.3069 -0.0271
18139SOL    HW155858   1.948   5.770   2.212 -0.5186  1.0029 -0.0913
18139SOL    HW255859   1.861   5.720   2.325 -0.6475  1.1604 -0.1200
18140SOL     OW55860   6.241   6.260   6.638  0.3743 -0.1339  0.1218
18140SOL    HW155861   6.327   6.280   6.675  0.6738  0.1078 -0.6689
18140SOL    HW255862   6.179   6.290   6.704  0.8955 -0.0460  0.5819
18141SOL     OW55863   0.619   2.687  10.326  0.0123  0.8885  0.3671
18141SOL    HW155864   0.637   2.594  10.312 -1.5879  0.3743  1.4379
18141SOL    HW255865   0.605   2.721  10.237 -2.2172 -0.5731  0.0485
18142SOL     OW55866   2.895   5.664   3.649 -0.2272  0.3899 -0.6468
18142SOL    HW155867   2.861   5.581   3.681  0.1543  0.7149  0.6364
18142SOL    HW255868   2.817   5.716   3.628 -0.4739  0.0638 -0.5329
18143SOL     OW55869   4.214   1.925   4.400  0.6126  0.3174 -0.3933
18143SOL    HW155870   4.186   2.014   4.421 -0.9637 -0.2987  0.2934
18143SOL    HW255871   4.192   1.874   4.477 -0.3366 -1.0169 -1.4859
18144SOL     OW55872   5.951   3.249  10.588 -0.3293  0.2555  0.4079
18144SOL    HW155873   5.928   3.324  10.644 -1.0916 -0.6388  1.3394
18144SOL    HW255874   5.870   3.228  10.542 -0.1632 -0.0818  0.2679
18145SOL     OW55875   7.766   1.077   5.837  0.1585  0.0404 -0.4338
18145SOL    HW155876   7.822   1.149   5.866  3.0898 -2.2553  0.1260
18145SOL    HW255877   7.692   1.079   5.897 -0.4998  3.1964 -1.1533
18146SOL     OW55878   2.619   5.418   4.714 -0.0506  0.0093  0.1106
18146SOL    HW155879   2.562   5.342   4.726  0.7475 -1.1374 -2.5672
18146SOL    HW255880   2.708   5.381   4.711  0.4668  1.2102  0.0210
18147SOL     OW55881   2.372   7.836   5.129 -0.2261 -0.1063  0.0274
18147SOL    HW155882   2.463   7.811   5.118 -0.4110 -0.5267 -0.5379
18147SOL    HW255883   2.336   7.770   5.188  0.1221  0.7218  1.2037
18148SOL     OW55884   2.930   3.353   9.196 -0.1868 -0.1061 -0.6814
18148SOL    HW155885   2.896   3.425   9.249  0.3206 -0.7125  0.5009
18148SOL    HW255886   3.003   3.392   9.147 -1.0612  0.6145 -1.4424
18149SOL     OW55887   5.010   4.091   7.262  0.3707 -0.0276 -0.4615
18149SOL    HW155888   4.957   4.168   7.238 -0.4971 -0.4451  0.0720
18149SOL    HW255889   5.032   4.050   7.178 -0.6634 -0.1763 -0.6681
18150SOL     OW55890   2.266   1.695   4.856 -0.0111  0.1035  0.0648
18150SOL    HW155891   2.184   1.648   4.842 -0.7721  0.4429  2.7473
18150SOL    HW255892   2.240   1.787   4.866  0.6152  0.1818  1.2360
18151SOL     OW55893   0.151   0.579   6.033  0.5977  0.0723 -0.0163
18151SOL    HW155894   0.201   0.500   6.015 -0.3934 -0.4466 -0.5657
18151SOL    HW255895   0.189   0.614   6.113  1.5963 -0.4971 -0.2333
18152SOL     OW55896   5.454   6.720  12.015  0.1599  0.7387  0.1436
18152SOL    HW155897   5.436   6.701  12.107  0.5168  0.6420  0.1941
18152SOL    HW255898   5.518   6.792  12.018  1.6238 -0.5086  0.0047
18153SOL     OW55899   0.247   5.598   5.850  0.3476  0.6467 -0.0233
18153SOL    HW155900   0.269   5.508   5.827 -1.8241  0.1540 -0.4380
18153SOL    HW255901   0.240   5.597   5.946  0.0485  0.2915 -0.0461
18154SOL     OW55902   1.793   4.199   2.637  0.4110 -0.0569  0.4991
18154SOL    HW155903   1.754   4.265   2.580  0.7411  0.6539  1.0866
18154SOL    HW255904   1.726   4.182   2.704  0.6220  0.2437  0.7872
18155SOL     OW55905   2.407   2.418   3.308  0.0898  0.1611  0.4815
18155SOL    HW155906   2.406   2.327   3.281  0.1506  0.9650 -2.6355
18155SOL    HW255907   2.439   2.416   3.398  0.9274 -2.8013  0.2257
18156SOL     OW55908   6.383   6.289   0.541 -0.0337 -0.2762  0.4786
18156SOL    HW155909   6.406   6.352   0.609 -1.3678  1.8068 -0.9029
18156SOL    HW255910   6.464   6.241   0.525  1.1593  1.3643  1.2984
18157SOL     OW55911   5.547   7.755  10.905 -0.1214  0.1067 -0.0196
18157SOL    HW155912   5.542   7.850  10.901 -1.8104  0.0434  0.0148
18157SOL    HW255913   5.588   7.737  10.989  0.6821  0.7838 -0.2422
18158SOL     OW55914   3.474   2.838  11.198 -0.2948  0.0251 -0.6587
18158SOL    HW155915   3.388   2.842  11.241 -0.9014  1.8462 -1.9306
18158SOL    HW255916   3.506   2.928  11.200  1.3087 -0.5197 -0.7814
18159SOL     OW55917   0.984   2.611  10.532  0.4074  0.2636 -0.5230
18159SOL    HW155918   1.059   2.641  10.480 -1.4297  0.3476 -3.3231
18159SOL    HW255919   0.962   2.525  10.495 -1.2769  0.5415 -0.2366
18160SOL     OW55920   4.131   5.651   1.477 -0.0142  0.4594 -0.1492
18160SOL    HW155921   4.079   5.639   1.398 -0.4371 -0.1577  0.2213
18160SOL    HW255922   4.116   5.572   1.528  1.6705  0.0448 -0.2473
18161SOL     OW55923   2.425   5.537   7.895  0.4092 -0.0572 -0.3176
18161SOL    HW155924   2.408   5.451   7.857 -0.1319 -0.5452  0.9810
18161SOL    HW255925   2.341   5.583   7.889 -0.5112 -1.1106  2.6462
18162SOL     OW55926   5.450   1.363   3.942  0.4349 -0.1433 -0.4804
18162SOL    HW155927   5.459   1.454   3.971 -3.0503  0.2510 -0.2436
18162SOL    HW255928   5.356   1.345   3.947  0.8570 -3.3944 -1.7214
18163SOL     OW55929   0.260   7.141   2.088 -0.6351  0.3194 -0.2179
18163SOL    HW155930   0.203   7.130   2.012 -3.2051 -0.1799  1.6325
18163SOL    HW255931   0.331   7.197   2.057 -2.2574  1.1912 -2.6421
18164SOL     OW55932   1.594   1.054   1.735  0.2589 -0.7504  0.0408
18164SOL    HW155933   1.564   1.135   1.777  1.2483  0.7447 -1.9523
18164SOL    HW255934   1.687   1.048   1.758  0.2292 -1.2395  0.0449
18165SOL     OW55935   3.181   3.703   5.711  0.1670 -0.0656  0.0574
18165SOL    HW155936   3.181   3.609   5.693  0.5969  0.0315 -0.4885
18165SOL    HW255937   3.149   3.711   5.801 -0.1963 -0.7081 -0.0122
18166SOL     OW55938   4.677   1.763   7.672  0.4911  0.0486 -0.5505
18166SOL    HW155939   4.732   1.696   7.631  0.4321  1.3970 -3.0193
18166SOL    HW255940   4.739   1.829   7.703  0.3925  0.3524 -0.9989
18167SOL     OW55941   4.561   3.009  10.331  0.0377 -0.2213 -0.3517
18167SOL    HW155942   4.564   3.102  10.309 -3.3056  0.6735  2.3062
18167SOL    HW255943   4.635   2.995  10.390  0.2316  0.8474 -0.3364
18168SOL     OW55944   6.613   6.709  11.851 -0.1174  0.0645 -0.0335
18168SOL    HW155945   6.668   6.758  11.912 -0.5844 -0.3507  0.7431
18168SOL    HW255946   6.669   6.695  11.774  0.3133  1.0329  0.0864
18169SOL     OW55947   4.143   6.041   9.751  0.1392  0.7056 -0.2057
18169SOL    HW155948   4.118   6.033   9.659 -0.2927  0.8057 -0.0995
18169SOL    HW255949   4.151   5.951   9.782 -2.2052  0.6095  0.3162
18170SOL     OW55950   7.445   4.038   3.859  0.4311  0.3259 -0.6082
18170SOL    HW155951   7.519   4.089   3.826  0.5595  1.3167  1.0571
18170SOL    HW255952   7.368   4.078   3.818  0.6853  0.4989 -0.9187
18171SOL     OW55953   2.348   7.293   1.882 -0.1510  0.2429  0.1283
18171SOL    HW155954   2.356   7.278   1.976  1.3870 -1.2325 -0.1729
18171SOL    HW255955   2.300   7.217   1.850  1.0979 -0.3193 -0.4959
18172SOL     OW55956   0.922   5.043   9.671  0.2274  0.3218  0.2769
18172SOL    HW155957   0.924   5.039   9.575 -0.2154 -0.0427  0.2798
18172SOL    HW255958   0.953   5.131   9.691  0.9289  0.1927 -0.1727
18173SOL     OW55959   6.430   2.635   7.386 -0.1041 -0.2704 -0.0594
18173SOL    HW155960   6.358   2.695   7.365 -0.2850  0.1835  1.7467
18173SOL    HW255961   6.390   2.548   7.381 -0.0926 -0.2123 -1.6863
18174SOL     OW55962   4.974   0.627   5.784 -0.5347  0.6275  0.2273
18174SOL    HW155963   4.952   0.537   5.758  0.8249  0.1656  0.6252
18174SOL    HW255964   4.893   0.661   5.823 -1.4498  0.0278 -1.0622
18175SOL     OW55965   6.268   5.007   4.329 -0.1166  0.2698  0.4258
18175SOL    HW155966   6.288   4.923   4.287 -0.5111  1.1173 -1.5743
18175SOL    HW255967   6.349   5.058   4.322 -0.6491  0.9911 -0.8304
18176SOL     OW55968   4.791   2.210   5.282 -0.2904 -0.3293  0.0562
18176SOL    HW155969   4.741   2.286   5.251 -0.3653 -0.8542 -1.1739
18176SOL    HW255970   4.881   2.242   5.287 -0.5131  0.2004  0.8154
18177SOL     OW55971   7.526   0.973   2.836  0.2641  0.4611  0.9405
18177SOL    HW155972   7.453   1.023   2.872 -0.3110 -0.4562  1.0670
18177SOL    HW255973   7.487   0.895   2.799  1.1862 -0.0728  1.0544
18178SOL     OW55974   3.897   4.279   4.029 -0.1317  0.0583  0.5682
18178SOL    HW155975   3.808   4.276   4.063 -1.1151  0.3751 -1.7941
18178SOL    HW255976   3.910   4.370   4.003  0.3982 -0.2484 -0.2748
18179SOL     OW55977   2.586   5.114   2.968  0.1193 -0.4488 -0.0419
18179SOL    HW155978   2.664   5.106   3.022  0.1529  0.1832  0.0131
18179SOL    HW255979   2.556   5.024   2.956  0.6633 -0.6716  0.2136
18180SOL     OW55980   0.047   0.241   2.955  0.3450  0.1092  0.3378
18180SOL    HW155981   0.021   0.156   2.920 -0.0993 -0.1156  1.1741
18180SOL    HW255982   0.084   0.288   2.881  0.3455 -0.7163 -0.1916
18181SOL     OW55983   4.263   7.632   4.765 -0.0396 -0.4204 -0.0559
18181SOL    HW155984   4.283   7.639   4.859  0.4053 -0.7111 -0.1256
18181SOL    HW255985   4.338   7.673   4.722  2.4250 -4.7365 -0.4688
18182SOL     OW55986   3.040   0.948   8.799 -0.0796  0.2361  0.0933
18182SOL    HW155987   3.124   0.990   8.779  0.7036 -1.6239 -0.7115
18182SOL    HW255988   2.979   0.988   8.738  0.8696 -0.4778 -1.3774
18183SOL     OW55989   4.624   5.151  10.545 -0.1097 -0.1508 -0.1719
18183SOL    HW155990   4.649   5.095  10.471  0.3747  0.0217 -0.1416
18183SOL    HW255991   4.547   5.107  10.583  0.3892 -0.9103 -0.0245
18184SOL     OW55992   0.279   2.088   3.848  0.1819 -0.4094 -0.0992
18184SOL    HW155993   0.371   2.112   3.860  0.4756  0.5513 -3.2882
18184SOL    HW255994   0.280   1.992   3.842  0.8970 -0.4371  0.3421
18185SOL     OW55995   2.334   2.274   2.640 -0.0331  0.1388 -0.0655
18185SOL    HW155996   2.378   2.352   2.673  2.8138 -0.8904 -1.1410
18185SOL    HW255997   2.316   2.222   2.718  0.3923  0.7093  0.4195
18186SOL     OW55998   7.803   7.158  11.897 -0.1011  0.3288 -0.2047
18186SOL    HW155999   7.862   7.083  11.898 -0.0408  0.3256  2.6747
18186SOL    HW256000   7.725   7.125  11.852  0.8905 -0.6062 -1.3296
18187SOL     OW56001   4.926   1.697   7.528  0.1918 -0.2011  0.1376
18187SOL    HW156002   4.896   1.751   7.455  0.6894 -0.9191 -0.6295
18187SOL    HW256003   4.964   1.759   7.590 -0.3478  0.4362 -0.1501
18188SOL     OW56004   4.680   4.957   0.136 -0.4374 -0.2292  0.3563
18188SOL    HW156005   4.705   5.035   0.186  0.0728 -1.4702  2.1413
18188SOL    HW256006   4.596   4.981   0.096 -0.2196  1.2836  0.7078
18189SOL     OW56007   2.178   7.629   7.818  0.6138 -0.8128  0.0163
18189SOL    HW156008   2.116   7.675   7.875  1.5375 -0.9909  1.2045
18189SOL    HW256009   2.153   7.655   7.730 -0.4179  0.0343  0.5314
18190SOL     OW56010   4.454   4.881   2.014 -0.3270 -0.1558  0.5925
18190SOL    HW156011   4.484   4.812   2.073  0.0310 -1.3900 -0.9377
18190SOL    HW256012   4.523   4.886   1.947  0.2298  2.5343  1.2758
18191SOL     OW56013   5.457   5.067   3.086  0.4518  0.3144 -0.0171
18191SOL    HW156014   5.532   5.024   3.127 -0.8509 -0.0538  2.1023
18191SOL    HW256015   5.484   5.079   2.995  2.8267 -0.3625  0.5185
18192SOL     OW56016   0.574   4.792   1.570  0.3737 -0.1917 -0.3028
18192SOL    HW156017   0.545   4.815   1.658 -1.6000  0.3719 -1.0574
18192SOL    HW256018   0.658   4.748   1.584 -1.1562 -2.7033  2.1289
18193SOL     OW56019   7.483   3.355   3.849 -0.1487 -0.2621  0.4848
18193SOL    HW156020   7.447   3.346   3.760 -0.1314 -0.2315  0.4747
18193SOL    HW256021   7.461   3.445   3.874  2.1911  0.6769 -0.5213
18194SOL     OW56022   7.680   4.146   4.205 -0.2709 -0.3358 -0.4774
18194SOL    HW156023   7.599   4.176   4.164  0.2788  0.7208 -0.8186
18194SOL    HW256024   7.681   4.051   4.188 -1.5113 -0.3947 -0.3060
18195SOL     OW56025   6.741   4.068  11.626 -0.3170  0.5570 -0.0288
18195SOL    HW156026   6.717   4.161  11.632  0.9208  0.9010 -0.0441
18195SOL    HW256027   6.777   4.047  11.713  0.5060  0.4409 -0.3838
18196SOL     OW56028   6.789   5.037   8.457 -0.6587 -0.2733 -0.3234
18196SOL    HW156029   6.848   4.974   8.497  0.5489  1.7462  1.2985
18196SOL    HW256030   6.782   5.009   8.365  2.1156 -1.1112 -0.3575
18197SOL     OW56031   3.425   1.754   9.529  0.0332  0.1490  0.2942
18197SOL    HW156032   3.460   1.825   9.476  0.4387  0.1545  0.5613
18197SOL    HW256033   3.499   1.727   9.583  0.2174 -1.2414 -0.6068
18198SOL     OW56034   0.287   0.521   5.340 -0.0741 -0.5882  0.0031
18198SOL    HW156035   0.290   0.615   5.357  0.7304 -0.5277 -0.4093
18198SOL    HW256036   0.355   0.506   5.274 -0.7657 -1.3324 -0.5766
18199SOL     OW56037   6.914   5.751   4.785  0.6937 -0.1197 -0.0721
18199SOL    HW156038   6.856   5.794   4.722  0.7317 -0.3779 -0.2832
18199SOL    HW256039   6.856   5.727   4.858  0.4345 -0.8386 -0.5058
18200SOL     OW56040   2.021   7.811  10.749 -0.0986  0.0859 -0.3289
18200SOL    HW156041   2.015   7.862  10.669  1.3522 -0.7231 -0.9922
18200SOL    HW256042   1.940   7.759  10.751 -0.3859  0.5031 -0.9818
18201SOL     OW56043   4.833   3.630   6.180 -0.6543  0.1579 -0.1993
18201SOL    HW156044   4.841   3.698   6.113  0.5820  0.0881 -0.1446
18201SOL    HW256045   4.843   3.677   6.263 -0.4009  0.0027 -0.1391
18202SOL     OW56046   5.922   1.971   0.898  0.6386  0.8497 -0.4453
18202SOL    HW156047   6.014   1.971   0.870  1.1411  1.3109  1.1125
18202SOL    HW256048   5.921   1.914   0.975 -0.8055 -0.8159 -1.6257
18203SOL     OW56049   1.605   4.558  11.371 -0.4556  0.2981 -0.1854
18203SOL    HW156050   1.515   4.560  11.338 -0.7105 -0.8668  0.3758
18203SOL    HW256051   1.645   4.483  11.326 -0.6182 -0.9158  1.5876
18204SOL     OW56052   3.121   3.256  12.267  0.4357  0.4630 -0.2061
18204SOL    HW156053   3.074   3.180  12.301 -0.0329  0.8776  0.0914
18204SOL    HW256054   3.210   3.224  12.252  0.5954  0.1794  1.1738
18205SOL     OW56055   5.149   5.001   3.914 -0.0348  0.2352 -0.1261
18205SOL    HW156056   5.230   4.960   3.947 -1.8287 -0.3750  4.1712
18205SOL    HW256057   5.097   4.928   3.882 -0.2963  0.1042  0.5761
18206SOL     OW56058   3.431   4.776   6.354 -0.0554 -0.0444 -0.2575
18206SOL    HW156059   3.499   4.842   6.362 -1.0882  1.1728 -1.0459
18206SOL    HW256060   3.368   4.814   6.292 -1.8502 -0.7401  1.0326
18207SOL     OW56061   7.502   3.171   6.023 -0.2130  0.4457 -0.4921
18207SOL    HW156062   7.462   3.169   5.936  0.1234  1.5731 -0.6825
18207SOL    HW256063   7.565   3.098   6.022 -1.4186 -0.6361 -0.5797
18208SOL     OW56064   7.604   6.667   2.107  0.6061 -0.3443 -0.5683
18208SOL    HW156065   7.609   6.640   2.199  0.3469 -0.7439 -0.6675
18208SOL    HW256066   7.664   6.607   2.062  0.4057 -0.4302 -0.7204
18209SOL     OW56067   3.169   5.046  12.012  0.4964  0.5709 -0.3004
18209SOL    HW156068   3.192   4.991  11.937  0.1755 -0.0677  0.0581
18209SOL    HW256069   3.153   5.133  11.975 -0.0401  0.1702 -1.0285
18210SOL     OW56070   1.715   6.436   1.747 -0.0766 -0.5522 -0.3684
18210SOL    HW156071   1.636   6.423   1.799  0.6750 -0.5032  0.8276
18210SOL    HW256072   1.787   6.420   1.809  0.8493 -1.2706 -1.5854
18211SOL     OW56073   7.347   4.217   8.682  0.3634 -0.1952  0.1563
18211SOL    HW156074   7.441   4.230   8.675  0.0268  1.8412 -1.8838
18211SOL    HW256075   7.323   4.171   8.602 -0.2351 -2.1821  1.4068
18212SOL     OW56076   4.660   6.185   8.211 -0.3526  0.2846 -0.7795
18212SOL    HW156077   4.619   6.219   8.131  0.7494  1.9933 -0.6741
18212SOL    HW256078   4.752   6.173   8.187  0.0549  1.1151  0.2951
18213SOL     OW56079   1.516   3.258  11.053  0.4031 -0.4447 -0.3067
18213SOL    HW156080   1.449   3.304  11.002  0.6599  0.8707  0.4953
18213SOL    HW256081   1.595   3.263  10.999 -0.0079 -1.6109 -1.0542
18214SOL     OW56082   1.489   4.914  11.343  0.1981  0.0064 -0.6323
18214SOL    HW156083   1.515   4.869  11.424  0.0719  1.9337  0.5456
18214SOL    HW256084   1.425   4.979  11.371  0.2961  0.8586 -2.2608
18215SOL     OW56085   7.063   6.822   3.079  0.5462  0.6589  0.2727
18215SOL    HW156086   7.091   6.913   3.079 -0.2724  0.9208  1.0070
18215SOL    HW256087   6.988   6.819   3.020  0.8985  0.3447 -0.1698
18216SOL     OW56088   0.806   5.248   7.864  0.2636  0.4238 -0.3060
18216SOL    HW156089   0.899   5.260   7.885  0.3097  0.4627 -0.5345
18216SOL    HW256090   0.801   5.257   7.769  0.2811 -1.2654 -0.4973
18217SOL     OW56091   1.719   3.181   5.475  0.6193 -0.4440 -0.1387
18217SOL    HW156092   1.660   3.108   5.492  0.6599 -0.2771  0.7612
18217SOL    HW256093   1.693   3.249   5.537 -1.0217  1.2694 -2.5229
18218SOL     OW56094   3.149   0.027  12.004  0.4351 -0.3422 -0.8204
18218SOL    HW156095   3.113   0.012  11.917 -0.6173 -0.8740 -0.3072
18218SOL    HW256096   3.236   0.064  11.988 -0.5521  1.6169 -2.1128
18219SOL     OW56097   1.989   7.598  10.113 -0.4784  0.4754 -0.3623
18219SOL    HW156098   2.061   7.606  10.176 -0.2470  0.6518 -0.6522
18219SOL    HW256099   1.914   7.569  10.167 -0.6581  1.9850  0.2460
18220SOL     OW56100   1.319   5.264   7.739 -0.6000  0.0506 -0.3337
18220SOL    HW156101   1.285   5.190   7.687 -0.5116  0.6125 -1.2071
18220SOL    HW256102   1.390   5.300   7.686 -0.8752  0.9874 -0.0855
18221SOL     OW56103   0.373   4.597   2.445  0.4992  0.3570 -0.1380
18221SOL    HW156104   0.332   4.620   2.361  2.1676  1.5085 -0.7006
18221SOL    HW256105   0.381   4.502   2.443 -2.5528 -0.0190  0.2615
18222SOL     OW56106   0.789   1.269   2.764  0.1391 -0.7494  0.5307
18222SOL    HW156107   0.838   1.261   2.846 -0.4367  2.1424  1.2563
18222SOL    HW256108   0.844   1.325   2.708 -1.3061  0.7812  0.5683
18223SOL     OW56109   5.048   5.404  11.602 -0.3689 -0.0387 -0.2112
18223SOL    HW156110   4.995   5.370  11.675 -2.0090  0.3956 -1.1466
18223SOL    HW256111   5.062   5.327  11.546 -1.6151  0.1856 -0.8733
18224SOL     OW56112   1.879   3.540   8.483 -0.3415  0.1899 -0.3469
18224SOL    HW156113   1.919   3.455   8.502  0.1724 -0.0298 -2.2214
18224SOL    HW256114   1.906   3.596   8.556  0.4443 -0.8913  0.2203
18225SOL     OW56115   3.995   0.087   3.796  0.7928  0.2027 -0.0446
18225SOL    HW156116   4.073   0.032   3.796 -0.1551 -1.2932 -2.0261
18225SOL    HW256117   4.027   0.176   3.789  2.3625 -0.1250  2.0258
18226SOL     OW56118   3.055   2.908   5.985  0.5990 -0.7007 -0.1991
18226SOL    HW156119   3.012   2.851   6.049  0.2091  0.3005  0.4362
18226SOL    HW256120   2.984   2.957   5.945  1.1039  0.8773  0.7738
18227SOL     OW56121   1.121   7.671   7.347  0.3621 -0.2012 -0.0589
18227SOL    HW156122   1.204   7.671   7.299  0.7529  0.4952  0.5928
18227SOL    HW256123   1.102   7.579   7.362  2.2873 -0.3617  1.8960
18228SOL     OW56124   3.621   4.627   6.254  0.1999  0.2262  0.2900
18228SOL    HW156125   3.579   4.613   6.169  0.5574  3.3406 -0.5232
18228SOL    HW256126   3.549   4.639   6.315 -0.0559 -1.7289  0.4443
18229SOL     OW56127   5.455   1.514   6.472 -0.0289 -0.1950 -0.1643
18229SOL    HW156128   5.373   1.536   6.428  0.5869 -1.0835 -1.8333
18229SOL    HW256129   5.427   1.483   6.559 -1.8349 -3.5869 -1.7517
18230SOL     OW56130   1.937   2.218  10.417 -0.1826 -0.5111  0.2447
18230SOL    HW156131   1.998   2.285  10.448 -0.8844  0.7448 -1.0043
18230SOL    HW256132   1.950   2.214  10.323 -1.5533 -0.6632  0.0301
18231SOL     OW56133   1.029   5.385   9.064 -0.2563  0.0224 -0.1670
18231SOL    HW156134   1.015   5.340   9.147 -1.1198 -1.3609 -1.0262
18231SOL    HW256135   0.963   5.455   9.062 -0.1918  0.0998  0.3181
18232SOL     OW56136   0.802   4.776   5.484  0.5855 -0.1151  0.0702
18232SOL    HW156137   0.762   4.772   5.571  2.1862  0.0628  0.8633
18232SOL    HW256138   0.781   4.693   5.444 -0.6321  0.0135  0.4116
18233SOL     OW56139   3.375   6.133  11.356  0.0483 -0.2294  0.0576
18233SOL    HW156140   3.403   6.143  11.447  1.2068 -0.8800 -0.2014
18233SOL    HW256141   3.300   6.074  11.360  0.2503 -0.4603  0.5662
18234SOL     OW56142   4.271   5.387   4.511  0.0716 -0.2267  0.3876
18234SOL    HW156143   4.348   5.329   4.512 -0.2011 -0.5898  0.6684
18234SOL    HW256144   4.307   5.474   4.528  0.5608 -0.2140 -0.6705
18235SOL     OW56145   7.870   7.490   4.007  0.1253 -0.0655 -0.2728
18235SOL    HW156146   7.811   7.557   3.973  0.4677  0.9149  0.9929
18235SOL    HW256147   7.951   7.537   4.024  0.4929 -0.8945  0.2829
18236SOL     OW56148   1.675   6.025   4.784  0.0609  1.3030 -0.4990
18236SOL    HW156149   1.741   6.037   4.853 -1.7051  3.2072  1.0092
18236SOL    HW256150   1.656   6.114   4.754  0.4523  0.5549 -3.2328
18237SOL     OW56151   7.877   3.520   4.816 -0.1084  0.1390  0.0997
18237SOL    HW156152   7.832   3.470   4.884  1.7086 -0.4354  0.9460
18237SOL    HW256153   7.937   3.577   4.864  0.6024  0.3301 -0.9883
18238SOL     OW56154   6.609   6.911   9.677  0.0135  0.0446  0.3055
18238SOL    HW156155   6.522   6.948   9.663  0.3569  0.3680 -1.1392
18238SOL    HW256156   6.598   6.817   9.670  0.0759  0.1582 -1.9348
18239SOL     OW56157   1.927   2.763   3.735  0.2180 -0.2512  0.1313
18239SOL    HW156158   1.869   2.748   3.661  0.9545 -0.7810 -0.3508
18239SOL    HW256159   1.976   2.681   3.745  0.8998  0.1909  0.5075
18240SOL     OW56160   6.194   7.428   1.620  0.2212  0.5100 -0.4093
18240SOL    HW156161   6.172   7.353   1.676  1.7112  1.0050  0.9343
18240SOL    HW256162   6.220   7.389   1.537  0.9916 -0.5127  0.2753
18241SOL     OW56163   1.328   2.579  11.075  0.1748  0.0096  0.0638
18241SOL    HW156164   1.265   2.511  11.049 -0.6350  0.9699 -0.5221
18241SOL    HW256165   1.274   2.654  11.099  0.9386 -0.2666  3.0335
18242SOL     OW56166   4.642   3.547   7.361  0.1114  0.6644  0.3314
18242SOL    HW156167   4.550   3.534   7.336  0.0715  0.6797  0.4692
18242SOL    HW256168   4.654   3.491   7.437  0.6230 -0.4713 -0.5658
18243SOL     OW56169   3.428   5.808   3.208 -0.2483  0.6267 -0.3141
18243SOL    HW156170   3.381   5.748   3.267 -0.5485 -2.0199 -3.0088
18243SOL    HW256171   3.364   5.874   3.185 -1.1063 -0.1073 -0.0945
18244SOL     OW56172   0.819   7.632  11.482  0.0665  0.0097  0.3718
18244SOL    HW156173   0.741   7.644  11.537  0.8939 -1.4139  1.9200
18244SOL    HW256174   0.888   7.679  11.529  0.3286  0.6341 -0.6140
18245SOL     OW56175   1.352   0.911  10.943 -0.1588  0.3271 -0.4792
18245SOL    HW156176   1.389   0.938  11.027 -2.1835  1.0188  0.2251
18245SOL    HW256177   1.271   0.865  10.966 -0.1137 -0.5956 -2.0104
18246SOL     OW56178   7.925   7.792   5.348 -0.0013 -0.0428 -0.4678
18246SOL    HW156179   7.905   7.700   5.368  1.5088  0.1301  2.4221
18246SOL    HW256180   7.966   7.789   5.262 -2.0797 -1.7235 -1.5112
18247SOL     OW56181   6.898   5.609   6.861  0.5796  0.0915  0.1448
18247SOL    HW156182   6.856   5.640   6.781 -2.2584 -0.0209  1.4591
18247SOL    HW256183   6.959   5.679   6.884 -0.5543  1.4259 -0.7068
18248SOL     OW56184   4.894   7.237   8.631 -0.3247 -0.3892  0.1304
18248SOL    HW156185   4.834   7.256   8.559 -0.6995 -0.3885  0.4410
18248SOL    HW256186   4.974   7.285   8.609 -0.3309 -0.6336 -0.4340
18249SOL     OW56187   6.352   2.266  10.493  0.0263 -0.1761  0.5965
18249SOL    HW156188   6.382   2.247  10.582 -0.7382  0.5756  1.0401
18249SOL    HW256189   6.297   2.191  10.470 -0.6072  0.0861  1.1809
18250SOL     OW56190   7.385   2.825   0.876 -0.2465  0.1658 -0.3770
18250SOL    HW156191   7.300   2.854   0.842 -0.1057  1.1230  0.0404
18250SOL    HW256192   7.383   2.849   0.969 -0.5840 -2.3047  0.3042
18251SOL     OW56193   7.477   6.286   9.641  0.4915 -0.6954 -0.4362
18251SOL    HW156194   7.449   6.372   9.672 -1.4788 -1.9230  1.4417
18251SOL    HW256195   7.541   6.257   9.706  0.4981 -1.0117 -0.5865
18252SOL     OW56196   0.247   4.833   1.883 -0.4074  0.7104 -0.0270
18252SOL    HW156197   0.217   4.910   1.932 -0.8659  0.8431 -0.5094
18252SOL    HW256198   0.204   4.759   1.927  1.2830  0.5456  1.4473
18253SOL     OW56199   5.580   0.225   6.469 -0.0568 -0.2603 -0.0378
18253SOL    HW156200   5.538   0.309   6.489 -0.1932 -0.4255  0.3883
18253SOL    HW256201   5.632   0.205   6.546  1.1467  0.1397 -0.7262
18254SOL     OW56202   1.917   1.836   5.123 -0.3615  0.0949 -0.4050
18254SOL    HW156203   1.879   1.911   5.076  0.7180  0.0525 -1.3928
18254SOL    HW256204   1.969   1.791   5.057  0.0293 -0.8121  0.5021
18255SOL     OW56205   3.584   2.276  11.777 -0.0701  0.1961 -0.1039
18255SOL    HW156206   3.626   2.271  11.863  0.5674  0.0113 -0.4199
18255SOL    HW256207   3.655   2.261  11.714 -1.0444 -3.1349 -0.6080
18256SOL     OW56208   3.558   7.913  12.403 -0.2878  0.0733  0.2881
18256SOL    HW156209   3.504   7.983  12.366  0.7160 -0.1934 -1.8384
18256SOL    HW256210   3.519   7.833  12.370  0.7948 -0.1683 -0.4389
18257SOL     OW56211   4.602   7.755   3.768 -0.4840  0.5934  0.4907
18257SOL    HW156212   4.539   7.754   3.840  0.8867 -1.6237  1.7652
18257SOL    HW256213   4.625   7.663   3.754  0.0480  1.0342 -2.1677
18258SOL     OW56214   4.231   0.045   6.379 -0.4515 -0.1940  0.4576
18258SOL    HW156215   4.193   0.038   6.467 -0.3570 -1.3022  0.4279
18258SOL    HW256216   4.169  -0.002   6.322  0.1904 -0.7056  0.1663
18259SOL     OW56217   5.709   1.792   9.177 -0.5584  0.1988  0.3884
18259SOL    HW156218   5.647   1.811   9.247  0.6584  1.6596  1.1597
18259SOL    HW256219   5.691   1.859   9.110  0.8596  1.4141  1.1379
18260SOL     OW56220   6.460   4.568   3.370  0.0428  0.4473 -0.0579
18260SOL    HW156221   6.516   4.598   3.442  0.4892  1.1542 -0.6785
18260SOL    HW256222   6.467   4.472   3.373  0.0814  0.4661  0.8077
18261SOL     OW56223   6.764   0.099   6.886  0.0247  0.0170  0.2025
18261SOL    HW156224   6.808   0.179   6.914  0.6381 -0.6663  1.2641
18261SOL    HW256225   6.695   0.129   6.826  0.7957  1.2502 -0.1061
18262SOL     OW56226   3.738   5.171   5.818  0.1830  0.0801 -0.0132
18262SOL    HW156227   3.705   5.209   5.737  0.0374 -0.5647 -0.2668
18262SOL    HW256228   3.679   5.203   5.886  0.3330  0.6581 -0.1517
18263SOL     OW56229   6.050   4.376   6.938  0.3265  0.2251  0.0225
18263SOL    HW156230   6.016   4.307   6.994  1.1034 -0.1437  0.0500
18263SOL    HW256231   6.138   4.394   6.972  0.7805  0.0518 -1.0203
18264SOL     OW56232   0.114   5.916   8.543 -0.5278 -0.1985  0.4467
18264SOL    HW156233   0.085   5.827   8.525 -2.4388  0.5793 -0.5998
18264SOL    HW256234   0.096   5.964   8.463  0.7276  1.0969  0.8923
18265SOL     OW56235   7.299   7.653   9.457 -0.0696  0.4138 -0.3164
18265SOL    HW156236   7.241   7.590   9.413 -1.5921  1.2428  0.4282
18265SOL    HW256237   7.262   7.739   9.434  1.1734  0.9905 -0.2126
18266SOL     OW56238   3.092   2.568   4.638 -0.6319  0.1892  0.7374
18266SOL    HW156239   3.185   2.550   4.627 -0.9063 -0.0494 -2.1664
18266SOL    HW256240   3.065   2.604   4.553 -3.2845 -0.1723  1.3324
18267SOL     OW56241   4.705   4.533   9.721  0.0422  0.2345  0.2950
18267SOL    HW156242   4.702   4.602   9.786  1.6747  0.6189 -0.0114
18267SOL    HW256243   4.691   4.452   9.771 -0.3836  0.6481  0.8598
18268SOL     OW56244   6.430   2.029   8.471  0.3018 -0.3058  0.0216
18268SOL    HW156245   6.385   2.008   8.389 -0.3964  1.1491  0.0081
18268SOL    HW256246   6.392   1.969   8.535 -1.5858  0.7611 -0.0280
18269SOL     OW56247   4.639   3.960   4.473 -0.1144  0.6880  0.0441
18269SOL    HW156248   4.574   3.893   4.494 -0.2371  1.2994  1.7001
18269SOL    HW256249   4.709   3.912   4.428 -0.7978 -0.3195  0.0365
18270SOL     OW56250   0.799   4.845   0.141  0.1625  0.1385 -0.2006
18270SOL    HW156251   0.835   4.768   0.099 -2.4073 -0.6458 -1.1453
18270SOL    HW256252   0.809   4.915   0.077 -1.0035 -0.3549 -0.9494
18271SOL     OW56253   4.903   5.628  11.415 -0.1491  0.1829  0.2032
18271SOL    HW156254   4.946   5.710  11.442  0.5738 -0.7277  1.9830
18271SOL    HW256255   4.936   5.562  11.476 -1.0072 -1.3833 -0.9506
18272SOL     OW56256   7.191   0.973   4.441 -0.3737  0.0613  0.0324
18272SOL    HW156257   7.280   0.967   4.407  0.1891 -1.0239  1.5969
18272SOL    HW256258   7.154   1.050   4.397 -0.0508 -1.6392 -3.6492
18273SOL     OW56259   7.662   0.312   0.669 -0.1925  0.0200  0.8759
18273SOL    HW156260   7.617   0.311   0.753  2.2606  0.0334  2.3104
18273SOL    HW256261   7.645   0.398   0.633 -1.1764  0.0666  1.4189
18274SOL     OW56262   6.569   4.194  11.952 -0.2390  0.4476  0.1474
18274SOL    HW156263   6.498   4.196  11.889 -1.4096  1.3524  1.4431
18274SOL    HW256264   6.535   4.143  12.026  1.5188 -1.6247 -0.3421
18275SOL     OW56265   4.273   2.618   6.328 -0.3853 -0.1108 -0.0602
18275SOL    HW156266   4.258   2.676   6.253  2.2515  0.6941 -0.0630
18275SOL    HW256267   4.242   2.669   6.404  1.1671  1.0457 -0.1491
18276SOL     OW56268   0.804   0.892   0.904  0.0239 -0.3217 -0.4939
18276SOL    HW156269   0.892   0.903   0.868  0.9357 -0.5337  1.4914
18276SOL    HW256270   0.747   0.938   0.843  1.8693  2.4857 -0.3075
18277SOL     OW56271   3.061   1.923  11.043 -0.1268 -0.4691 -0.4628
18277SOL    HW156272   3.082   2.007  11.084 -0.8179  0.6580 -2.2757
18277SOL    HW256273   3.082   1.858  11.109  0.5947  1.1196  0.9498
18278SOL     OW56274   2.305   0.870  10.618 -0.5167  0.2505 -0.1754
18278SOL    HW156275   2.269   0.856  10.705 -0.1562 -1.6336 -0.2957
18278SOL    HW256276   2.233   0.852  10.558 -0.1895 -0.6082 -0.3212
18279SOL     OW56277   6.980   0.231   3.000  0.0525 -0.0811 -0.0984
18279SOL    HW156278   6.895   0.224   2.956  0.8947  2.4966 -2.3991
18279SOL    HW256279   6.966   0.299   3.065  0.2490  0.0303 -0.1750
18280SOL     OW56280   0.526   4.102  11.397  0.3779 -0.3313  0.2623
18280SOL    HW156281   0.432   4.109  11.416  0.4894 -0.6436  0.9329
18280SOL    HW256282   0.534   4.137  11.308 -0.1570  1.1291  0.7417
18281SOL     OW56283   4.528   7.595  12.191 -0.2533  0.3203  0.0572
18281SOL    HW156284   4.520   7.681  12.150 -0.3230  0.8294  1.1050
18281SOL    HW256285   4.465   7.540  12.145 -1.1202  1.1636  0.2150
18282SOL     OW56286   7.819   6.531   3.898 -0.2877  0.0393  0.4063
18282SOL    HW156287   7.743   6.558   3.950  1.7344 -0.2757  3.8351
18282SOL    HW256288   7.850   6.613   3.858 -1.1397  0.5534  0.7572
18283SOL     OW56289   5.090   4.963   5.097  0.2741  0.0625 -0.0644
18283SOL    HW156290   5.151   4.941   5.167 -2.0752  0.0358  2.1441
18283SOL    HW256291   5.081   5.058   5.102  0.2155  0.0758 -0.4410
18284SOL     OW56292   2.327   6.987   3.712 -0.5154 -0.0727  0.0280
18284SOL    HW156293   2.269   6.921   3.675 -1.1836  0.9664 -0.8154
18284SOL    HW256294   2.323   6.972   3.807 -0.3175 -1.4944 -0.1644
18285SOL     OW56295   7.275   7.268   2.088  0.0440 -0.4208  0.1053
18285SOL    HW156296   7.342   7.217   2.044  0.3785  0.4447 -0.4231
18285SOL    HW256297   7.234   7.207   2.149  1.1645 -1.0156  0.2849
18286SOL     OW56298   6.654   0.389   0.730  0.2228  0.1781  1.0840
18286SOL    HW156299   6.620   0.316   0.781  1.1866 -0.3477  0.9919
18286SOL    HW256300   6.619   0.376   0.642  0.6277 -0.3353  0.9984
18287SOL     OW56301   5.035   7.877   7.745  0.0773 -0.8445 -0.2550
18287SOL    HW156302   5.045   7.871   7.650  0.4879 -3.5199 -0.1069
18287SOL    HW256303   5.118   7.912   7.776  0.1915 -0.5999 -0.8185
18288SOL     OW56304   6.006   5.168   3.485  0.0156  0.0428  0.5062
18288SOL    HW156305   6.032   5.092   3.537 -0.1345  0.1147  0.6867
18288SOL    HW256306   6.060   5.163   3.406 -0.8408 -0.9241 -0.0410
18289SOL     OW56307   6.225   4.961   4.023  0.1910  0.1037 -0.2044
18289SOL    HW156308   6.237   4.905   3.946 -0.3438  0.7883 -0.7942
18289SOL    HW256309   6.313   4.995   4.040 -0.0108  1.4614 -1.6997
18290SOL     OW56310   2.728   3.517   8.745  0.1408 -0.3252  0.2110
18290SOL    HW156311   2.649   3.511   8.690  0.8092  1.8813 -1.1287
18290SOL    HW256312   2.799   3.486   8.688  0.3659 -1.5341  1.1304
18291SOL     OW56313   7.202   6.454   2.940 -0.6415 -0.0792  0.6943
18291SOL    HW156314   7.294   6.480   2.934 -0.6276 -0.1915  0.3808
18291SOL    HW256315   7.195   6.377   2.883 -0.7803 -0.4935  1.2654
18292SOL     OW56316   1.440   0.263  11.283 -0.3966  0.0417  0.6238
18292SOL    HW156317   1.443   0.250  11.378 -0.9976  0.2758  0.6785
18292SOL    HW256318   1.473   0.351  11.269  0.1086 -0.1516  0.5739
18293SOL     OW56319   1.358   2.000   8.493 -0.2503 -0.4389  0.3971
18293SOL    HW156320   1.370   2.078   8.440  0.4436 -1.3389 -0.8380
18293SOL    HW256321   1.279   1.959   8.458 -0.4532 -0.4335  0.8480
18294SOL     OW56322   7.942   3.678  10.669 -0.4662  0.0959 -0.2087
18294SOL    HW156323   7.867   3.620  10.685  0.5870 -1.3381 -0.2657
18294SOL    HW256324   8.017   3.631  10.707  0.7376  0.5335 -1.9419
18295SOL     OW56325   0.250   5.028   3.569  0.0909 -0.1753  0.8226
18295SOL    HW156326   0.328   5.037   3.623  0.8841 -2.0270  0.0667
18295SOL    HW256327   0.274   5.066   3.485  1.0784 -2.7283 -0.1633
18296SOL     OW56328   5.448   0.316   6.186 -0.3361  0.3046  0.3157
18296SOL    HW156329   5.410   0.263   6.116 -0.1880  2.1931 -1.2819
18296SOL    HW256330   5.373   0.346   6.237 -0.7042  0.9412 -0.5667
18297SOL     OW56331   1.453   6.244   8.917  0.1897 -0.2884  0.1354
18297SOL    HW156332   1.472   6.333   8.948 -0.6754  0.5138 -1.5364
18297SOL    HW256333   1.491   6.241   8.829  2.7166 -2.5484  1.1355
18298SOL     OW56334   2.775   2.184   1.898  0.0212 -0.2941 -0.0833
18298SOL    HW156335   2.732   2.105   1.865 -0.8394  0.7393 -1.5457
18298SOL    HW256336   2.839   2.151   1.962 -2.0151 -1.9761  1.2291
18299SOL     OW56337   1.688   0.661   7.296  0.5479 -0.0554 -0.4073
18299SOL    HW156338   1.779   0.678   7.271  0.8062 -1.7600 -0.7908
18299SOL    HW256339   1.644   0.639   7.214 -0.4844  1.7297 -0.3671
18300SOL     OW56340   7.587   4.599   0.558 -0.0161  0.1634  0.2228
18300SOL    HW156341   7.548   4.560   0.480 -1.0519  1.5827  0.0077
18300SOL    HW256342   7.679   4.572   0.555 -0.4720 -1.3938 -0.4377
18301SOL     OW56343   4.945   7.930  10.800  0.3925  0.1721 -0.2730
18301SOL    HW156344   4.909   7.870  10.865 -2.5816 -0.5529 -2.3669
18301SOL    HW256345   4.951   8.014  10.846 -0.2521 -0.6024  1.3011
18302SOL     OW56346   7.517   6.992  12.095  0.1742  0.1607 -0.7362
18302SOL    HW156347   7.555   6.919  12.046  0.6150 -0.2745  0.2288
18302SOL    HW256348   7.425   6.994  12.070 -0.5497 -2.5449  1.3343
18303SOL     OW56349   1.266   1.627   5.074 -0.0381 -0.3118 -0.0105
18303SOL    HW156350   1.361   1.626   5.076 -0.0126  0.8469  1.8365
18303SOL    HW256351   1.240   1.618   5.165 -1.6143  1.9000 -0.1544
18304SOL     OW56352   2.431   5.128   1.677  0.0762  0.3208  0.4582
18304SOL    HW156353   2.476   5.126   1.761 -0.4533  0.4040  0.7477
18304SOL    HW256354   2.427   5.036   1.651  2.7323  0.4787 -0.8497
18305SOL     OW56355   6.868   6.451  12.339 -0.5996 -0.3067 -0.5039
18305SOL    HW156356   6.913   6.381  12.291 -0.1584  0.8378 -1.8293
18305SOL    HW256357   6.789   6.468  12.288 -0.7894  0.0582 -0.0979
18306SOL     OW56358   1.712   1.509   3.994  0.3776  0.1596  0.2581
18306SOL    HW156359   1.743   1.588   3.950 -0.1747  0.2931  0.1071
18306SOL    HW256360   1.761   1.438   3.952 -0.4865  0.2364 -0.9202
18307SOL     OW56361   2.008   7.767   6.875 -0.0604  0.4585  0.5630
18307SOL    HW156362   2.035   7.698   6.936 -0.3147 -1.4495 -1.3854
18307SOL    HW256363   2.089   7.814   6.855  0.1888  0.5099  1.6309
18308SOL     OW56364   4.031   4.641   5.356  0.5952 -0.0234  0.5292
18308SOL    HW156365   4.049   4.557   5.398  0.4531 -0.7660 -0.8583
18308SOL    HW256366   3.944   4.666   5.389  1.6745  0.9090  2.9693
18309SOL     OW56367   7.627   3.357   9.379 -0.0284 -0.1154 -0.2815
18309SOL    HW156368   7.617   3.265   9.403  0.6596 -0.1041  0.0602
18309SOL    HW256369   7.707   3.385   9.422  0.9027  0.0948 -2.0502
18310SOL     OW56370   5.795   5.509   0.413  0.0664 -0.1773 -0.4599
18310SOL    HW156371   5.735   5.492   0.487 -0.3882 -1.0124 -1.0038
18310SOL    HW256372   5.832   5.423   0.393  2.5914  0.5351  0.8001
18311SOL     OW56373   2.461   3.342   7.685  0.1105 -0.2703  0.5197
18311SOL    HW156374   2.491   3.257   7.652 -0.9027 -1.2911  2.1068
18311SOL    HW256375   2.530   3.370   7.745  0.4678  0.0639 -0.0407
18312SOL     OW56376   1.302   2.543   2.338 -0.2535  0.4460 -0.2119
18312SOL    HW156377   1.353   2.609   2.386  1.0469 -0.2617 -0.5562
18312SOL    HW256378   1.367   2.496   2.286 -1.1982 -0.8295 -0.2968
18313SOL     OW56379   3.676   5.368  10.599 -0.2161 -0.3694  0.2287
18313SOL    HW156380   3.665   5.404  10.511 -1.0028 -0.9769  0.0608
18313SOL    HW256381   3.679   5.273  10.586 -1.7013 -0.5534  0.9419
18314SOL     OW56382   3.207   3.958   9.170  0.6138 -0.0574 -0.3000
18314SOL    HW156383   3.136   3.998   9.121  0.9804  1.2169  0.1620
18314SOL    HW256384   3.282   3.958   9.110  0.1982 -1.5929 -0.8599
18315SOL     OW56385   5.093   1.352   2.784 -0.4921  0.2556  0.2334
18315SOL    HW156386   5.072   1.259   2.784 -0.1207  0.0924  2.9279
18315SOL    HW256387   5.183   1.357   2.816 -0.1842  1.5223 -0.7234
18316SOL     OW56388   5.768   1.257   2.671  0.2033 -0.1270  0.0199
18316SOL    HW156389   5.774   1.269   2.766  2.3419 -0.5936 -0.0194
18316SOL    HW256390   5.858   1.257   2.640 -0.3521 -1.7306 -1.8147
18317SOL     OW56391   7.955   7.244   3.939 -0.2603  0.5450  0.2499
18317SOL    HW156392   8.050   7.255   3.928 -0.5229  0.9475 -2.5508
18317SOL    HW256393   7.922   7.334   3.949 -0.4598  0.5816 -0.6053
18318SOL     OW56394   7.031   7.923  11.848 -0.6576 -0.1684 -0.7114
18318SOL    HW156395   6.964   7.885  11.904  0.2732 -0.9329 -0.0981
18318SOL    HW256396   7.044   8.011  11.883 -0.5999 -0.3854 -0.1841
18319SOL     OW56397   3.487   4.267   2.537  0.2776  0.1209  0.0601
18319SOL    HW156398   3.509   4.180   2.572  1.0498 -0.2773 -1.3091
18319SOL    HW256399   3.402   4.255   2.496 -0.0668  0.2771  0.7127
18320SOL     OW56400   5.369   4.544   4.702 -0.6152 -0.0339 -0.1527
18320SOL    HW156401   5.360   4.634   4.671 -1.6131  0.1263  0.5368
18320SOL    HW256402   5.320   4.542   4.785  0.6790 -0.8259  0.6353
18321SOL     OW56403   2.389   6.202   7.441 -0.1252  1.0166 -0.8482
18321SOL    HW156404   2.303   6.226   7.406 -0.6424  1.7547  0.8429
18321SOL    HW256405   2.415   6.276   7.496 -0.3816 -0.8975  2.0963
18322SOL     OW56406   3.422   3.504   2.217  0.1638 -0.0120 -0.1345
18322SOL    HW156407   3.409   3.489   2.123  0.1185 -0.5272 -0.0483
18322SOL    HW256408   3.333   3.502   2.253  0.3289 -2.3739  0.2866
18323SOL     OW56409   1.953   4.604   7.149  0.0100  0.0347  0.4831
18323SOL    HW156410   1.888   4.668   7.178  0.2838  0.5557 -0.0456
18323SOL    HW256411   1.915   4.564   7.071  0.6841  0.9540 -0.3366
18324SOL     OW56412   4.395   0.361   9.214 -0.4150  0.8663 -0.3069
18324SOL    HW156413   4.433   0.381   9.129  1.0196  2.0888  0.5569
18324SOL    HW256414   4.467   0.319   9.263 -1.1018  0.5016  0.4215
18325SOL     OW56415   4.035   0.965   5.925  0.4245 -0.0695  0.5766
18325SOL    HW156416   4.093   1.041   5.932 -0.4002  0.5647  0.6731
18325SOL    HW256417   4.043   0.938   5.833  0.8585  0.0183  0.5846
18326SOL     OW56418   0.311   6.983  10.243  0.7462  0.7280  0.5761
18326SOL    HW156419   0.233   6.976  10.298  0.6729 -0.5931  0.3541
18326SOL    HW256420   0.325   6.893  10.211  1.3029  1.2856 -0.8252
18327SOL     OW56421   3.703   7.195   2.548 -0.5285  0.1979  0.4029
18327SOL    HW156422   3.692   7.278   2.594 -0.2503  0.5474 -0.1645
18327SOL    HW256423   3.726   7.219   2.459 -0.4695 -0.4896  0.2276
18328SOL     OW56424   6.235   6.036  11.709 -0.3061  0.1739  0.5227
18328SOL    HW156425   6.167   6.060  11.646 -0.1062 -1.1573 -0.2475
18328SOL    HW256426   6.316   6.039  11.659 -0.3322 -2.6780  0.1211
18329SOL     OW56427   5.289   3.871  12.255  0.7633  0.3363  0.2436
18329SOL    HW156428   5.259   3.950  12.300 -0.7595  0.6590 -1.2749
18329SOL    HW256429   5.380   3.861  12.284  0.3471  1.4312  2.0964
18330SOL     OW56430   4.296   6.860   7.955  0.0628 -0.1109  0.0703
18330SOL    HW156431   4.375   6.887   7.907  0.4543  0.2930  0.8989
18330SOL    HW256432   4.259   6.788   7.904  1.4084 -0.8287  0.0575
18331SOL     OW56433   3.326   6.808   9.452 -0.3016  0.0545  0.1375
18331SOL    HW156434   3.322   6.713   9.454 -0.5502  0.0639  0.1552
18331SOL    HW256435   3.363   6.829   9.366  0.0734 -0.0657  0.2669
18332SOL     OW56436   1.666   3.667  10.324  0.1608 -0.0116 -0.1854
18332SOL    HW156437   1.720   3.592  10.347 -0.0887 -0.7469 -1.8913
18332SOL    HW256438   1.620   3.689  10.405 -1.9909 -3.5594 -0.2168
18333SOL     OW56439   4.422   2.307   6.997 -0.3170  0.8567  0.3246
18333SOL    HW156440   4.425   2.397   6.963 -0.5148 -0.5381 -4.1104
18333SOL    HW256441   4.329   2.289   7.009 -0.5459  0.4354 -1.7102
18334SOL     OW56442   6.284   0.944   7.873 -0.6748  0.1669  0.1107
18334SOL    HW156443   6.350   0.900   7.928  0.5215  2.5161  0.6774
18334SOL    HW256444   6.206   0.950   7.929 -0.0848  0.8175  0.8931
18335SOL     OW56445   2.863   7.709   5.923 -0.3764 -0.2790  0.1619
18335SOL    HW156446   2.950   7.741   5.945 -0.0911 -1.0347  0.1736
18335SOL    HW256447   2.808   7.787   5.922  0.4837  0.3440 -0.8161
18336SOL     OW56448   1.997   7.186  10.293  0.1354  0.0062 -0.0835
18336SOL    HW156449   1.992   7.130  10.371 -0.3322  1.4766  0.9936
18336SOL    HW256450   1.958   7.269  10.321 -0.3125  0.4807 -1.9933
18337SOL     OW56451   4.272   1.713   5.334  0.4437  0.2743 -0.2214
18337SOL    HW156452   4.287   1.649   5.404  1.2837 -0.7152 -1.2590
18337SOL    HW256453   4.177   1.714   5.321  0.3148  0.1977  0.6775
18338SOL     OW56454   4.157   7.912   8.148  0.2304 -0.2560  0.0164
18338SOL    HW156455   4.213   7.863   8.208  0.4918  0.1833  0.1359
18338SOL    HW256456   4.080   7.934   8.200 -1.0607 -2.6934 -0.7463
18339SOL     OW56457   0.771   7.918   3.069 -0.1153  0.3820 -0.6597
18339SOL    HW156458   0.802   7.832   3.097 -0.4883  0.2831 -0.5468
18339SOL    HW256459   0.850   7.963   3.039  0.0571 -0.0582 -0.8795
18340SOL     OW56460   0.904   7.892   5.413  0.1495 -0.1270 -0.0972
18340SOL    HW156461   0.812   7.866   5.410 -0.7408  2.6694 -0.4822
18340SOL    HW256462   0.942   7.855   5.333 -0.7433 -0.9802 -0.1418
18341SOL     OW56463   4.415   7.591   5.228 -0.8261  0.2162  0.2080
18341SOL    HW156464   4.350   7.629   5.287 -0.3447 -0.8513  1.4897
18341SOL    HW256465   4.487   7.563   5.286  0.1201  0.0454 -1.0016
18342SOL     OW56466   6.963   5.708   1.806  0.3438  0.1746 -0.3342
18342SOL    HW156467   7.011   5.640   1.852  1.9957  2.6274  1.9015
18342SOL    HW256468   7.019   5.730   1.731 -0.0945 -0.7605 -0.9421
18343SOL     OW56469   6.592   3.228   0.669  0.2016 -0.4814  0.7363
18343SOL    HW156470   6.565   3.138   0.648 -0.7481 -0.3711  1.3816
18343SOL    HW256471   6.516   3.265   0.715  0.3394  0.8497 -0.0517
18344SOL     OW56472   5.343   4.299   5.214 -0.5321  0.0049 -0.1671
18344SOL    HW156473   5.396   4.288   5.135 -1.5739  0.0431 -0.8975
18344SOL    HW256474   5.269   4.352   5.186 -1.2880 -0.5668  0.6678
18345SOL     OW56475   7.228   7.405   0.481  0.4233 -0.0146 -0.7045
18345SOL    HW156476   7.237   7.410   0.577 -0.1525 -1.3133 -0.5699
18345SOL    HW256477   7.308   7.445   0.448  1.6984 -1.5375  0.3619
18346SOL     OW56478   3.954   7.698   4.064  0.4331 -0.4898 -0.3019
18346SOL    HW156479   3.988   7.787   4.057 -0.9420  0.0790 -0.2211
18346SOL    HW256480   3.951   7.681   4.158 -0.2039 -0.2376 -0.2711
18347SOL     OW56481   6.886   1.701   9.990  0.3977  0.0631  0.0844
18347SOL    HW156482   6.944   1.734  10.059  0.6312 -0.1294 -0.0175
18347SOL    HW256483   6.883   1.607  10.005 -0.0457  0.0938  0.2052
18348SOL     OW56484   6.252   0.863   2.282 -0.0539 -0.0271 -0.2211
18348SOL    HW156485   6.334   0.912   2.283  0.1037 -0.2869 -0.4332
18348SOL    HW256486   6.203   0.898   2.208  0.8227 -1.4304 -1.5203
18349SOL     OW56487   2.030   0.002  10.981 -1.0780 -0.1622 -0.0490
18349SOL    HW156488   1.987  -0.048  11.050  0.7574  0.7236  1.8447
18349SOL    HW256489   2.041  -0.061  10.910 -3.4083 -0.9930  0.2521
18350SOL     OW56490   7.144   5.997  11.119 -0.3997  0.1141 -0.1404
18350SOL    HW156491   7.191   5.914  11.127  0.1838  0.5677  1.5524
18350SOL    HW256492   7.066   5.986  11.172 -0.3780  0.6039  0.0009
18351SOL     OW56493   7.038   7.955   5.519  0.5084 -0.1009  0.1270
18351SOL    HW156494   7.021   7.953   5.425 -1.4134  2.7855  0.3110
18351SOL    HW256495   7.121   8.002   5.527  0.3358  0.2461 -0.1086
18352SOL     OW56496   2.782   3.698   3.267 -0.0877 -0.8474 -0.5637
18352SOL    HW156497   2.802   3.749   3.346 -0.3644 -2.2749  0.4672
18352SOL    HW256498   2.868   3.678   3.230  0.0170  0.7726 -1.2938
18353SOL     OW56499   3.596   6.315   5.432  0.3244  0.3103 -0.1864
18353SOL    HW156500   3.541   6.237   5.442  1.1556 -0.2493  0.0882
18353SOL    HW256501   3.558   6.362   5.358 -0.4197 -0.1577 -0.1090
18354SOL     OW56502   0.858   5.777   4.604  0.3004  0.0066 -0.5726
18354SOL    HW156503   0.950   5.795   4.620  0.2623 -1.3227  1.6312
18354SOL    HW256504   0.814   5.805   4.685 -1.8065  3.6641 -2.6892
18355SOL     OW56505   4.766   6.745   3.664 -0.4094  0.6923  0.1026
18355SOL    HW156506   4.771   6.783   3.751  0.7745  0.2341  0.2607
18355SOL    HW256507   4.747   6.652   3.678 -2.3295  0.9935 -0.2412
18356SOL     OW56508   2.903   5.383   5.030  0.1460 -0.0753  0.2847
18356SOL    HW156509   2.928   5.427   4.949 -0.2725  0.5384  0.4799
18356SOL    HW256510   2.807   5.383   5.029  0.1132  0.9015  1.2725
18357SOL     OW56511   4.328   4.021   3.639  0.0941 -0.0231  0.2304
18357SOL    HW156512   4.353   4.042   3.729 -1.3284 -2.6122  1.3343
18357SOL    HW256513   4.234   4.036   3.636 -0.1834 -1.6269 -0.2366
18358SOL     OW56514   2.281   4.229   6.059 -0.1060 -0.0027  0.0561
18358SOL    HW156515   2.201   4.270   6.026  1.0792  1.6899 -0.8870
18358SOL    HW256516   2.340   4.229   5.984  1.4081  0.5349  1.2034
18359SOL     OW56517   0.066   7.081   8.716 -0.6091 -0.4568 -0.7561
18359SOL    HW156518   0.156   7.108   8.697 -0.3851  0.4642  1.2698
18359SOL    HW256519   0.073   7.025   8.793 -1.8320  0.3720 -0.0035
18360SOL     OW56520   1.011   0.076   6.960 -0.7128 -0.9659 -0.1001
18360SOL    HW156521   0.970   0.032   6.886  0.4926 -0.7320 -0.9331
18360SOL    HW256522   1.093   0.110   6.925 -0.4745 -0.1936  1.1574
18361SOL     OW56523   0.376   0.593  11.016 -0.5697 -0.1080 -0.1470
18361SOL    HW156524   0.378   0.526  11.085  2.1371  0.4878  0.5060
18361SOL    HW256525   0.307   0.654  11.043 -0.7801 -0.8590  1.0774
18362SOL     OW56526   0.234   2.914   8.803 -0.6346 -0.6631 -0.0804
18362SOL    HW156527   0.143   2.908   8.773 -1.7061  2.4573  2.0029
18362SOL    HW256528   0.277   2.969   8.737 -1.6496  1.8629  1.1940
18363SOL     OW56529   4.126   7.495   1.213  0.1102  0.3112  0.7675
18363SOL    HW156530   4.179   7.536   1.144 -0.3918  2.9563  1.8323
18363SOL    HW256531   4.135   7.401   1.197  1.3021  0.7757 -1.9054
18364SOL     OW56532   4.785   6.810  11.061 -0.0134  1.1142 -0.3022
18364SOL    HW156533   4.690   6.802  11.072  0.0068  0.8126 -0.3388
18364SOL    HW256534   4.797   6.894  11.018 -0.2063  1.5500  0.4815
18365SOL     OW56535   5.695   7.364   7.563  0.6896  0.8930 -0.5336
18365SOL    HW156536   5.621   7.411   7.523 -0.7058  0.4256  1.3706
18365SOL    HW256537   5.661   7.332   7.646  2.8744  0.0878  0.1155
18366SOL     OW56538   0.829   1.538  11.542  0.1840 -0.1925  0.2728
18366SOL    HW156539   0.854   1.512  11.454 -1.8164  0.5555 -0.5664
18366SOL    HW256540   0.787   1.461  11.579  0.7570 -0.4094  0.4944
18367SOL     OW56541   0.459   7.759   8.638 -0.1904  0.2464 -0.4881
18367SOL    HW156542   0.401   7.765   8.714  1.6617  1.7129  0.8833
18367SOL    HW256543   0.514   7.683   8.655 -1.5762 -1.1115 -1.7645
18368SOL     OW56544   5.091   2.400   9.115 -0.1255 -0.0129 -0.2027
18368SOL    HW156545   5.079   2.428   9.024  0.2399 -1.6438 -0.7837
18368SOL    HW256546   5.186   2.395   9.125 -0.1294  1.0914  0.6010
18369SOL     OW56547   3.546   2.434   9.178 -0.5455 -0.1493 -0.0135
18369SOL    HW156548   3.580   2.481   9.102 -1.3048 -0.3847 -0.5189
18369SOL    HW256549   3.463   2.397   9.147 -1.1884  0.2890  1.1240
18370SOL     OW56550   6.785   0.948  12.389 -0.4901  0.2801 -0.0430
18370SOL    HW156551   6.848   0.954  12.461  0.3113 -0.9162 -0.6178
18370SOL    HW256552   6.822   0.883  12.330 -2.0432 -0.1149 -0.6288
18371SOL     OW56553   2.011   4.257   5.431 -0.4662  0.2887 -0.0110
18371SOL    HW156554   2.079   4.251   5.498  0.2093  0.6827 -0.6612
18371SOL    HW256555   1.975   4.168   5.427 -0.9587  0.3908  1.3088
18372SOL     OW56556   1.286   3.456   5.877 -0.3896  0.9208 -0.8142
18372SOL    HW156557   1.217   3.509   5.836 -1.6673 -0.2411 -0.2483
18372SOL    HW256558   1.297   3.496   5.964  1.1025  2.3155 -1.5743
18373SOL     OW56559   0.475   7.880  10.965  0.2257 -0.1405  0.1658
18373SOL    HW156560   0.539   7.820  10.926  0.7542  0.2662  0.3941
18373SOL    HW256561   0.517   7.966  10.960  0.4715 -0.1302  1.9700
18374SOL     OW56562   1.185   6.415  12.104 -0.3907 -0.0961 -0.1489
18374SOL    HW156563   1.129   6.488  12.129  0.0623 -0.2901  1.5681
18374SOL    HW256564   1.124   6.343  12.086 -0.7841  0.3871 -0.8034
18375SOL     OW56565   0.865   3.907  11.695  0.1454  0.3085 -0.4498
18375SOL    HW156566   0.801   3.913  11.624 -1.1460 -2.0968  0.3741
18375SOL    HW256567   0.950   3.908  11.652 -0.6045 -1.3300 -2.1191
18376SOL     OW56568   7.736   6.468   7.197 -0.0098  0.5998  0.2641
18376SOL    HW156569   7.648   6.501   7.218 -0.3284 -1.0062  1.6826
18376SOL    HW256570   7.750   6.494   7.106 -1.9652  0.9114 -0.0029
18377SOL     OW56571   4.507   5.786  11.157  0.0607 -0.0819 -0.4514
18377SOL    HW156572   4.546   5.754  11.076  1.9134  1.7160 -0.3550
18377SOL    HW256573   4.577   5.837  11.198 -1.3474  0.3760  1.4948
18378SOL     OW56574   5.883   2.537  10.092  0.2895  0.2373 -0.0613
18378SOL    HW156575   5.933   2.455  10.094  1.0659  0.7087 -0.0578
18378SOL    HW256576   5.914   2.582  10.013  1.3341  1.4353  0.9915
18379SOL     OW56577   5.217   3.684  10.363 -0.4953  0.1486 -0.1456
18379SOL    HW156578   5.267   3.657  10.440  1.2113  1.8355 -0.6010
18379SOL    HW256579   5.226   3.611  10.302  2.5497  0.8910 -0.7014
18380SOL     OW56580   6.268   4.694   2.476  0.3092  0.1821 -0.2963
18380SOL    HW156581   6.343   4.753   2.470 -1.6489  2.8648 -0.0534
18380SOL    HW256582   6.216   4.714   2.398 -0.1297 -1.7673 -0.5669
18381SOL     OW56583   1.071   0.884   1.899 -0.5771  0.2140 -0.6395
18381SOL    HW156584   1.013   0.828   1.848 -1.8722  1.2971 -0.4394
18381SOL    HW256585   1.011   0.943   1.946  0.6665  0.7684  0.3095
18382SOL     OW56586   1.232   5.670   3.390 -0.2520  0.6776 -0.2559
18382SOL    HW156587   1.259   5.750   3.345 -2.0557  1.9970  0.8451
18382SOL    HW256588   1.270   5.677   3.478 -1.8021  1.2095  0.4031
18383SOL     OW56589   0.299   2.922   2.159  0.4537  0.2757 -0.0184
18383SOL    HW156590   0.276   3.011   2.133  0.9109 -0.0944 -1.7786
18383SOL    HW256591   0.219   2.871   2.146  0.3365  0.3143  0.5093
18384SOL     OW56592   4.112   4.179   7.090  0.0792  0.6271  0.4895
18384SOL    HW156593   4.023   4.202   7.115  0.4835  2.3328  0.5420
18384SOL    HW256594   4.165   4.252   7.123  1.2743  0.4760 -0.9876
18385SOL     OW56595   3.846   4.376  12.242  0.3986  0.0134 -0.2009
18385SOL    HW156596   3.858   4.406  12.152  1.5516  0.4768  0.0876
18385SOL    HW256597   3.923   4.322  12.260  0.6043  0.5967  0.7669
18386SOL     OW56598   3.279   3.401   0.756  0.1726 -0.5943  0.3691
18386SOL    HW156599   3.198   3.401   0.705 -0.7404 -2.1446  1.7177
18386SOL    HW256600   3.329   3.474   0.721 -2.0726  0.8307 -0.0780
18387SOL     OW56601   3.875   2.549   2.472  0.1798 -0.4682 -0.2093
18387SOL    HW156602   3.804   2.524   2.411 -0.2330 -0.8694  0.4237
18387SOL    HW256603   3.839   2.531   2.559  0.7209  0.2316  0.1626
18388SOL     OW56604   0.858   2.485   5.676 -0.4599  0.5951 -0.4483
18388SOL    HW156605   0.775   2.466   5.631 -0.3808 -0.5969 -0.1277
18388SOL    HW256606   0.875   2.407   5.729  2.2709 -0.4834 -2.6252
18389SOL     OW56607   1.821   6.095   0.606  0.1157  0.1112 -0.2688
18389SOL    HW156608   1.765   6.128   0.535 -1.0593  0.5745  0.8303
18389SOL    HW256609   1.876   6.028   0.564 -0.2539  0.6619 -1.6915
18390SOL     OW56610   2.145   2.779   6.955 -0.4429  0.3417 -0.2083
18390SOL    HW156611   2.096   2.853   6.919  0.4618  0.5957 -0.9648
18390SOL    HW256612   2.084   2.705   6.952 -1.3044  1.0037  0.3990
18391SOL     OW56613   0.617   1.687  11.170 -0.3231  0.5060  0.0150
18391SOL    HW156614   0.533   1.724  11.144 -0.6342 -1.2214 -1.7161
18391SOL    HW256615   0.597   1.596  11.193  1.3008 -0.6119 -2.5815
18392SOL     OW56616   1.803   5.710  10.576 -0.3348  0.1642  0.5050
18392SOL    HW156617   1.866   5.638  10.582  0.1983  0.5910  0.1013
18392SOL    HW256618   1.723   5.669  10.543 -0.4726 -0.4927  1.6117
18393SOL     OW56619   6.192   2.748   9.139  0.1511  0.1042 -0.4283
18393SOL    HW156620   6.219   2.719   9.226 -0.3332  0.2070 -0.2459
18393SOL    HW256621   6.275   2.760   9.092  0.4442  0.6567  0.2117
18394SOL     OW56622   1.541   0.884   1.983 -0.6929 -0.0830  0.2225
18394SOL    HW156623   1.584   0.922   1.906  1.9962  0.2061  1.7574
18394SOL    HW256624   1.511   0.960   2.033 -1.5939 -0.2546 -0.0258
18395SOL     OW56625   3.688   2.000   1.819 -0.0814  0.8062 -0.1735
18395SOL    HW156626   3.730   1.918   1.845 -0.4287  0.7572  0.2601
18395SOL    HW256627   3.594   1.979   1.818 -0.3007  1.5285  1.2961
18396SOL     OW56628   7.843   4.137   9.734  0.0684  0.1468 -0.1301
18396SOL    HW156629   7.925   4.108   9.773  0.8475  2.0878 -0.2445
18396SOL    HW256630   7.821   4.218   9.780 -0.4843  0.9650 -1.7443
18397SOL     OW56631   2.543   1.974   3.127  0.3583  0.1182 -0.0801
18397SOL    HW156632   2.567   1.884   3.153 -1.1950 -0.1846  0.3888
18397SOL    HW256633   2.601   1.993   3.054  1.7791 -0.6950  0.7719
18398SOL     OW56634   3.259   6.781   3.327  0.0840 -0.0809 -0.2772
18398SOL    HW156635   3.241   6.807   3.417  2.5026 -0.0060  0.2343
18398SOL    HW256636   3.318   6.849   3.294  1.5733 -1.6199 -0.9271
18399SOL     OW56637   4.868   5.918   3.278  0.1474 -0.0279 -0.3915
18399SOL    HW156638   4.813   5.940   3.353  0.0117 -2.8147  0.4542
18399SOL    HW256639   4.806   5.907   3.205  0.1988  1.8927 -0.7704
18400SOL     OW56640   7.500   7.121   0.583  0.0004  0.6561 -0.4526
18400SOL    HW156641   7.550   7.055   0.630 -1.9069 -0.9256 -0.5143
18400SOL    HW256642   7.559   7.196   0.577  1.6080 -0.3880  1.1996
18401SOL     OW56643   6.347   4.839   6.968 -0.3621 -0.1552  0.4775
18401SOL    HW156644   6.431   4.797   6.990 -0.9856 -0.6115  2.0784
18401SOL    HW256645   6.300   4.845   7.051 -1.1772  1.8248 -0.0709
18402SOL     OW56646   4.734   3.314  11.867 -0.7383 -0.3640 -0.7129
18402SOL    HW156647   4.709   3.231  11.825 -0.5769 -0.2771 -0.9791
18402SOL    HW256648   4.652   3.345  11.907 -1.1143  0.0157 -1.7492
18403SOL     OW56649   2.027   2.352   3.267  0.1333 -0.3574 -0.1748
18403SOL    HW156650   2.035   2.437   3.223  1.2755  1.7047  3.6210
18403SOL    HW256651   1.934   2.345   3.288 -0.2670 -0.9465 -1.9361
18404SOL     OW56652   2.557   5.210  10.668 -0.0834 -0.3846  0.5653
18404SOL    HW156653   2.513   5.128  10.645  1.1796 -1.2660  1.2147
18404SOL    HW256654   2.633   5.183  10.719  2.0471  0.9827 -1.7077
18405SOL     OW56655   5.642   1.861   4.655  0.4188 -0.3068 -0.4745
18405SOL    HW156656   5.735   1.882   4.646  0.7494 -1.4847  0.0819
18405SOL    HW256657   5.623   1.875   4.748  0.1118 -0.3572 -0.5281
18406SOL     OW56658   4.993   7.640   7.384 -0.5172  0.3792  0.1198
18406SOL    HW156659   4.901   7.616   7.383 -0.5350  0.4089  0.6420
18406SOL    HW256660   4.994   7.735   7.392 -0.4654  0.8362 -3.6565
18407SOL     OW56661   1.453   6.524   4.273 -0.4018 -0.3577  0.2141
18407SOL    HW156662   1.484   6.610   4.304 -0.0503 -0.6840  0.7860
18407SOL    HW256663   1.410   6.543   4.190 -0.7113  0.4385  0.5399
18408SOL     OW56664   0.725   5.402   7.505  0.0617 -0.1815  0.5265
18408SOL    HW156665   0.669   5.456   7.561 -0.4354 -0.2166  0.0681
18408SOL    HW256666   0.745   5.325   7.559  0.0730  0.0578  0.8690
18409SOL     OW56667   3.557   5.966   7.804 -0.4930 -0.1619 -0.0064
18409SOL    HW156668   3.551   6.010   7.719 -1.9345 -0.8281 -0.2741
18409SOL    HW256669   3.545   5.874   7.784 -0.8678 -0.3206  0.9334
18410SOL     OW56670   7.656   3.851  11.004 -0.6151  0.5077  0.4841
18410SOL    HW156671   7.593   3.780  11.018 -0.7063  0.8457  1.8571
18410SOL    HW256672   7.658   3.899  11.087  0.2292  1.4895 -0.0810
18411SOL     OW56673   0.608   1.020   7.609 -0.4393 -0.0253  0.5671
18411SOL    HW156674   0.589   1.109   7.580 -0.4483  0.2919  1.5038
18411SOL    HW256675   0.572   1.016   7.698  0.1600 -0.7437  0.7874
18412SOL     OW56676   4.036   4.040   3.687 -0.0484  0.0769 -0.0823
18412SOL    HW156677   3.995   3.957   3.712  0.4707  0.6887  3.2655
18412SOL    HW256678   4.029   4.095   3.765  1.4986  2.4609 -1.4844
18413SOL     OW56679   3.370   2.730   3.315 -0.0189  0.0882  0.4584
18413SOL    HW156680   3.336   2.641   3.324 -0.5139  0.1646 -0.4582
18413SOL    HW256681   3.394   2.756   3.404 -0.4932 -0.7177  0.8349
18414SOL     OW56682   0.242   3.619   8.365  0.1109  0.1232  0.0123
18414SOL    HW156683   0.204   3.703   8.341  2.2085  1.9460  2.5184
18414SOL    HW256684   0.330   3.621   8.329  0.2480 -0.9428  0.2383
18415SOL     OW56685   5.023   3.968  10.408  0.0728  0.4988  0.1788
18415SOL    HW156686   4.969   4.028  10.356 -0.1475  1.7550  1.7748
18415SOL    HW256687   5.107   4.013  10.416  0.5112 -0.2495 -0.0875
18416SOL     OW56688   0.277   4.791   5.758  0.0232 -0.0113  0.3643
18416SOL    HW156689   0.277   4.791   5.662  2.2880 -1.0105  0.2985
18416SOL    HW256690   0.347   4.852   5.782 -0.4062  0.0993  1.3955
18417SOL     OW56691   1.974   2.156   2.854 -1.0078 -0.1990  0.4592
18417SOL    HW156692   2.048   2.216   2.865 -0.6020 -0.6981  0.5102
18417SOL    HW256693   1.999   2.078   2.904 -1.8837 -0.1071  1.0742
18418SOL     OW56694   0.274   7.146   3.688  0.1389  0.6113  0.4323
18418SOL    HW156695   0.249   7.238   3.683 -1.2141  0.2388 -0.0103
18418SOL    HW256696   0.367   7.148   3.713  0.2670  2.0920 -0.0560
18419SOL     OW56697   3.964   1.996  10.508  0.1319 -0.1855  0.4108
18419SOL    HW156698   4.006   2.022  10.426  0.5383 -2.2317 -0.0942
18419SOL    HW256699   3.873   2.026  10.499  0.1981 -0.2753 -0.7511
18420SOL     OW56700   3.191   4.113   7.044  0.5861 -0.3436 -0.3697
18420SOL    HW156701   3.208   4.024   7.013 -0.5540 -0.7492  0.1105
18420SOL    HW256702   3.272   4.139   7.088  1.4310 -0.5957 -1.7204
18421SOL     OW56703   0.296   5.066  12.105 -0.5735  0.7282 -0.2112
18421SOL    HW156704   0.201   5.069  12.115 -0.4325  0.0373  1.7759
18421SOL    HW256705   0.310   5.033  12.016 -2.2201 -0.5789 -0.0307
18422SOL     OW56706   2.619   0.074   1.068  0.1065 -0.1063 -0.7419
18422SOL    HW156707   2.666   0.080   0.985  1.8125  0.9685  0.2435
18422SOL    HW256708   2.665   0.134   1.126 -1.0458 -0.8315  1.0006
18423SOL     OW56709   1.952   4.469   0.081  0.0942  0.3666 -0.2817
18423SOL    HW156710   1.876   4.498   0.031  1.2645  0.3640 -2.1607
18423SOL    HW256711   2.013   4.544   0.077  0.9480 -0.3197 -0.4724
18424SOL     OW56712   5.628   3.840  10.626 -0.1684  0.5384  0.0557
18424SOL    HW156713   5.540   3.846  10.589 -0.9769  0.0903  1.7892
18424SOL    HW256714   5.648   3.746  10.625  0.0410  0.5810  0.1808
18425SOL     OW56715   4.678   6.376   4.097  0.1743 -0.1367 -0.3022
18425SOL    HW156716   4.747   6.421   4.048 -0.8581  0.7488 -0.9687
18425SOL    HW256717   4.618   6.343   4.029  0.2733 -1.4769  0.2341
18426SOL     OW56718   3.302   0.002   3.373 -0.3671 -0.5280  0.5614
18426SOL    HW156719   3.241  -0.007   3.299  1.0821 -1.6140 -0.5662
18426SOL    HW256720   3.275  -0.066   3.434 -0.7956 -0.4589  0.4542
18427SOL     OW56721   5.071   1.209   3.659  0.1830  0.3749  0.1512
18427SOL    HW156722   5.063   1.115   3.675 -0.0502  0.6800  1.9216
18427SOL    HW256723   5.057   1.218   3.564 -0.8583 -1.2514  0.1160
18428SOL     OW56724   1.561   2.053   9.670  0.2678  0.1171 -0.3794
18428SOL    HW156725   1.481   2.016   9.631 -0.3370 -0.0198  0.9280
18428SOL    HW256726   1.625   2.052   9.599 -0.9541  0.4271 -1.5207
18429SOL     OW56727   1.301   4.316   8.064 -0.5763  0.5511 -0.0238
18429SOL    HW156728   1.254   4.300   8.145  1.2373 -0.6119  0.8554
18429SOL    HW256729   1.315   4.410   8.062 -1.0339  0.6399  0.7832
18430SOL     OW56730   3.356   0.021   8.418 -0.7049  1.0185 -0.9000
18430SOL    HW156731   3.446   0.049   8.404 -0.1275 -0.0709  0.3868
18430SOL    HW256732   3.341  -0.046   8.351  0.0345  0.0099 -0.0885
18431SOL     OW56733   4.661   5.848   3.121  0.4867  0.2811 -0.2714
18431SOL    HW156734   4.586   5.869   3.067  0.0298 -0.2974  0.1241
18431SOL    HW256735   4.625   5.830   3.208  0.9541 -0.9896 -0.3155
18432SOL     OW56736   7.882   6.758   5.501  0.0266 -0.0049 -0.4485
18432SOL    HW156737   7.802   6.773   5.452  0.0941  0.3055 -0.4635
18432SOL    HW256738   7.875   6.667   5.531 -0.7142  0.2675  0.2542
18433SOL     OW56739   4.749   4.112  10.949 -0.8423  0.2997  0.0738
18433SOL    HW156740   4.741   4.023  10.984  1.8353 -0.2509 -0.5155
18433SOL    HW256741   4.753   4.168  11.026 -1.3560 -0.1870  0.4664
18434SOL     OW56742   5.243   2.096   7.407  0.8846  0.6898 -0.1180
18434SOL    HW156743   5.303   2.135   7.344  1.2788  0.4727  0.1190
18434SOL    HW256744   5.258   2.001   7.399  0.2683  0.6101 -0.3636
18435SOL     OW56745   4.305   3.967   6.783  0.2847 -0.1356 -0.0881
18435SOL    HW156746   4.217   3.997   6.763 -0.0637 -0.0982  1.3984
18435SOL    HW256747   4.294   3.875   6.808  0.5067  0.1426  1.0840
18436SOL     OW56748   2.229   1.064  10.073 -0.2282  0.1670  0.2725
18436SOL    HW156749   2.152   1.115  10.046  0.2709  1.3802  1.0592
18436SOL    HW256750   2.247   1.094  10.162 -0.0370 -1.5803  0.8458
18437SOL     OW56751   1.682   4.848   3.283  0.1707  0.0508  0.2557
18437SOL    HW156752   1.739   4.772   3.293  0.3163  0.3369  1.6870
18437SOL    HW256753   1.719   4.915   3.340 -0.3807  0.9652 -0.4183
18438SOL     OW56754   4.390   3.150  11.563  0.5189 -0.1224  0.1769
18438SOL    HW156755   4.461   3.138  11.626  1.7217  0.4515 -1.0131
18438SOL    HW256756   4.417   3.100  11.487  0.6593  1.7099 -1.0374
18439SOL     OW56757   7.493   4.710   6.722 -0.0886  0.4175 -0.1404
18439SOL    HW156758   7.528   4.798   6.739  0.1027  0.6825 -1.6991
18439SOL    HW256759   7.513   4.660   6.801 -1.5419  2.1585  1.4301
18440SOL     OW56760   5.503   2.860   0.677  0.3869 -0.0683  0.6207
18440SOL    HW156761   5.574   2.808   0.714 -0.6218 -2.4785 -0.6104
18440SOL    HW256762   5.545   2.912   0.608  0.8803 -2.4715 -1.0425
18441SOL     OW56763   4.436   0.775   4.705  0.1799 -0.2946  0.0524
18441SOL    HW156764   4.403   0.819   4.783  0.7203  2.1844 -1.0320
18441SOL    HW256765   4.524   0.809   4.693  0.2393 -0.8945 -1.4602
18442SOL     OW56766   7.368   3.633   4.651 -0.6223 -0.5385 -0.1161
18442SOL    HW156767   7.296   3.649   4.591 -0.7459  1.4215  0.4829
18442SOL    HW256768   7.447   3.645   4.599 -0.7196 -1.0122 -0.3777
18443SOL     OW56769   1.164   7.184   2.151 -0.2677  0.5162 -0.0444
18443SOL    HW156770   1.185   7.207   2.060 -1.0312  1.7553  0.0655
18443SOL    HW256771   1.155   7.268   2.196  4.4528  0.0614  2.3333
18444SOL     OW56772   5.086   4.507  10.746  0.1074 -0.3775  0.1417
18444SOL    HW156773   5.074   4.602  10.742 -0.0221 -0.2942  1.9928
18444SOL    HW256774   5.003   4.473  10.777  0.4207 -1.0291  0.2888
18445SOL     OW56775   2.852   6.512   0.664 -0.2962 -0.7761 -0.6245
18445SOL    HW156776   2.929   6.545   0.711 -0.8811 -2.2711  1.5208
18445SOL    HW256777   2.874   6.422   0.641 -1.4167 -1.2334  0.0547
18446SOL     OW56778   1.220   0.609   2.616 -0.0487 -0.8558  0.3068
18446SOL    HW156779   1.174   0.674   2.668 -0.8667 -1.2598  0.1121
18446SOL    HW256780   1.288   0.575   2.674  0.1611 -0.0901  0.5230
18447SOL     OW56781   2.724   2.525   5.878 -0.1688  0.4654 -0.4777
18447SOL    HW156782   2.705   2.441   5.838  1.8351 -0.5255  0.5008
18447SOL    HW256783   2.694   2.517   5.968  2.0275 -0.0873  0.2621
18448SOL     OW56784   4.143   0.972   9.674  0.0762 -0.1884  0.2682
18448SOL    HW156785   4.127   1.047   9.616 -0.8037  0.3531  1.1882
18448SOL    HW256786   4.236   0.981   9.699  0.0158  0.5249  0.2625
18449SOL     OW56787   0.145   3.328  10.257 -0.6805 -1.2031 -1.0054
18449SOL    HW156788   0.128   3.314  10.163 -0.4005 -0.6033 -1.1477
18449SOL    HW256789   0.203   3.255  10.281 -0.7813 -1.3816 -1.2882
18450SOL     OW56790   0.453   6.245   2.381  0.0919 -0.0092 -0.6613
18450SOL    HW156791   0.359   6.256   2.366 -0.1210 -0.1100  0.5612
18450SOL    HW256792   0.486   6.335   2.391 -0.3045 -0.0545  1.3514
18451SOL     OW56793   4.757   7.433  12.157  0.0139 -0.2408 -0.6304
18451SOL    HW156794   4.722   7.347  12.133 -0.2319 -0.5336  0.6776
18451SOL    HW256795   4.679   7.487  12.172  0.0320 -0.8180  2.0350
18452SOL     OW56796   2.580   1.083  10.172  0.0997 -0.1199  0.4888
18452SOL    HW156797   2.548   1.007  10.123 -0.3781 -1.2498  2.4695
18452SOL    HW256798   2.634   1.131  10.109 -1.1491 -1.0468 -1.3718
18453SOL     OW56799   6.603   7.821   3.650 -0.2824  0.6868 -0.1253
18453SOL    HW156800   6.559   7.905   3.665 -0.3048  0.4283  1.4314
18453SOL    HW256801   6.539   7.769   3.602 -1.0352  0.9055  0.6138
18454SOL     OW56802   5.080   6.804   1.642 -0.5379  0.2991  0.3902
18454SOL    HW156803   5.166   6.820   1.680 -0.6829 -1.0021  1.3501
18454SOL    HW256804   5.086   6.716   1.604 -2.0703 -0.8199  2.5277
18455SOL     OW56805   4.589   4.837   3.526  0.2090  0.5229  0.0861
18455SOL    HW156806   4.519   4.873   3.581 -1.9367  0.3511 -2.3444
18455SOL    HW256807   4.543   4.792   3.455  2.8287 -0.2656 -1.2458
18456SOL     OW56808   2.031   6.490   6.904  0.6639 -0.0472  0.4549
18456SOL    HW156809   2.016   6.516   6.813  0.9705 -1.1033  0.0940
18456SOL    HW256810   2.083   6.561   6.941  0.6614  0.3184 -0.2295
18457SOL     OW56811   3.867   2.256   4.452  0.0025 -0.1555  0.7803
18457SOL    HW156812   3.850   2.162   4.459 -0.5118 -0.0895  0.4660
18457SOL    HW256813   3.814   2.285   4.377  0.9289  0.2042  0.2480
18458SOL     OW56814   5.104   5.654  10.054  0.0873 -0.2935  0.2700
18458SOL    HW156815   5.062   5.717   9.995  0.9339 -0.6655 -0.7610
18458SOL    HW256816   5.108   5.699  10.138  0.3547  0.9183 -0.3613
18459SOL     OW56817   3.259   3.064  11.496 -0.2322  0.4495  0.0136
18459SOL    HW156818   3.214   3.138  11.456 -1.8619 -0.6476 -0.3263
18459SOL    HW256819   3.351   3.088  11.497 -0.6855  2.3177 -0.3901
18460SOL     OW56820   3.627   7.290   7.985 -0.6157  0.5012  0.1537
18460SOL    HW156821   3.574   7.361   8.022 -1.4408 -1.0856  2.1906
18460SOL    HW256822   3.569   7.248   7.921 -0.8884  0.3668  0.4864
18461SOL     OW56823   4.846   0.052  10.397 -0.2203 -0.0041 -0.0146
18461SOL    HW156824   4.941   0.056  10.405  0.0660 -1.7878 -1.6804
18461SOL    HW256825   4.821  -0.028  10.444 -0.8257  0.1753 -0.0207
18462SOL     OW56826   0.748   2.149  10.970  0.5849  0.7802 -0.0472
18462SOL    HW156827   0.685   2.221  10.977 -0.2035  0.2831 -1.5887
18462SOL    HW256828   0.814   2.181  10.908  0.8750  0.6203  0.1787
18463SOL     OW56829   7.841   4.462   6.543 -0.1807  0.3073  0.0015
18463SOL    HW156830   7.829   4.386   6.486 -0.7448  1.3038 -1.2772
18463SOL    HW256831   7.755   4.505   6.543 -0.2338  0.2707  1.7540
18464SOL     OW56832   2.394   4.097   5.355 -0.3114 -0.4314  0.5407
18464SOL    HW156833   2.335   4.075   5.428 -1.0301  1.0573  0.4376
18464SOL    HW256834   2.413   4.012   5.315 -0.5213 -1.2010  1.9821
18465SOL     OW56835   0.981   0.049   8.388 -0.4564  0.1971  0.5923
18465SOL    HW156836   0.901   0.101   8.393 -0.0501  0.8788  0.1157
18465SOL    HW256837   0.956  -0.030   8.341 -0.9429  0.2200  0.8101
18466SOL     OW56838   1.252   6.006   0.171 -0.3672 -0.4261  0.0586
18466SOL    HW156839   1.259   5.940   0.240 -1.1121 -0.5113  0.0641
18466SOL    HW256840   1.182   5.973   0.114 -0.4569  0.1566 -0.1700
18467SOL     OW56841   1.491   0.800   4.586 -0.0049 -0.0802 -0.4993
18467SOL    HW156842   1.480   0.782   4.679  1.1864  1.6700  0.0149
18467SOL    HW256843   1.419   0.751   4.544 -1.4106  0.1953  1.4446
18468SOL     OW56844   5.647   7.463   6.451 -0.3598 -0.1781 -0.2668
18468SOL    HW156845   5.628   7.506   6.534  2.6388 -0.1540  0.5032
18468SOL    HW256846   5.652   7.370   6.473 -1.8219 -0.4476 -0.9358
18469SOL     OW56847   1.351   1.596   8.575 -0.4882  0.2539 -0.6047
18469SOL    HW156848   1.382   1.615   8.487 -0.4414  0.0114 -0.6432
18469SOL    HW256849   1.338   1.501   8.575 -1.7070  0.4056 -0.7536
18470SOL     OW56850   2.058   7.817   3.174  0.1027 -0.1147 -0.1090
18470SOL    HW156851   2.098   7.742   3.130  0.5378  0.7408 -1.2302
18470SOL    HW256852   1.967   7.816   3.146  0.7785  1.4881 -2.6394
18471SOL     OW56853   6.760   6.464   2.902 -0.1255 -0.0476  0.7367
18471SOL    HW156854   6.766   6.531   2.970 -1.6010 -0.2017  1.0631
18471SOL    HW256855   6.799   6.504   2.825  2.9758 -0.3874  1.9656
18472SOL     OW56856   1.540   1.495   5.116  0.4452  0.4229 -0.0882
18472SOL    HW156857   1.572   1.463   5.032  4.0915  1.4886  0.7103
18472SOL    HW256858   1.575   1.432   5.180 -2.2669 -0.3746  0.7314
18473SOL     OW56859   3.064   2.411   9.492  0.1069  0.3513  0.5225
18473SOL    HW156860   3.064   2.329   9.443 -0.3043  0.5549  0.1730
18473SOL    HW256861   3.012   2.471   9.438 -1.2436  0.2865  1.6994
18474SOL     OW56862   6.645   3.847   8.713  0.0054 -0.4017  0.6327
18474SOL    HW156863   6.699   3.845   8.791 -1.5869  0.6815  1.8258
18474SOL    HW256864   6.616   3.938   8.705 -0.0620 -0.5299 -1.0943
18475SOL     OW56865   6.441   1.195  10.833 -0.8153 -0.1834  0.1469
18475SOL    HW156866   6.437   1.104  10.804  2.1460 -0.5981  0.7315
18475SOL    HW256867   6.483   1.242  10.760 -1.1349  0.4785  0.3773
18476SOL     OW56868   1.579   7.830   9.106  0.1278  0.3619 -0.5120
18476SOL    HW156869   1.610   7.910   9.149  0.9140 -0.5733  0.7301
18476SOL    HW256870   1.555   7.772   9.179 -0.9118 -0.3457 -1.4045
18477SOL     OW56871   5.844   1.415   7.860  0.4650  0.3043 -0.6876
18477SOL    HW156872   5.919   1.376   7.817  0.4348 -0.3034 -0.2136
18477SOL    HW256873   5.781   1.343   7.869 -0.6021  1.0311 -1.9990
18478SOL     OW56874   0.157   6.358   9.509 -0.0813 -0.4253  0.1375
18478SOL    HW156875   0.107   6.439   9.498  0.5531 -0.0532 -0.1183
18478SOL    HW256876   0.185   6.359   9.600 -0.0752 -0.3513  0.1356
18479SOL     OW56877   6.623   4.884  12.283  0.0957  0.1838  0.3421
18479SOL    HW156878   6.604   4.832  12.361  0.6075 -1.5968 -0.6701
18479SOL    HW256879   6.713   4.913  12.294  0.6060 -1.1317 -0.1116
18480SOL     OW56880   1.796   1.832   0.593  0.3529 -0.3897 -0.5633
18480SOL    HW156881   1.795   1.834   0.497  0.7181  0.0985 -0.5593
18480SOL    HW256882   1.704   1.845   0.617  0.4619  1.0567 -0.8349
18481SOL     OW56883   3.003   4.631   2.583 -0.2573 -0.1066  0.3642
18481SOL    HW156884   3.027   4.659   2.672  1.9271  0.3298 -0.2887
18481SOL    HW256885   2.908   4.632   2.583 -0.3213  0.5605  2.4989
18482SOL     OW56886   2.064   3.255   6.216 -0.2101  0.2132 -0.4896
18482SOL    HW156887   1.980   3.292   6.242 -0.3341  1.3982 -2.4304
18482SOL    HW256888   2.047   3.211   6.133  0.9631 -0.1127 -0.5746
18483SOL     OW56889   2.160   4.613   3.826  0.0117 -0.3263  0.2271
18483SOL    HW156890   2.089   4.672   3.801  0.3277  0.2395  0.6411
18483SOL    HW256891   2.117   4.529   3.842 -0.3736 -0.3378 -0.8358
18484SOL     OW56892   7.257   3.098   7.127  0.2897 -0.2794  0.4951
18484SOL    HW156893   7.209   3.078   7.208  2.1565 -1.1035  1.4622
18484SOL    HW256894   7.197   3.152   7.076 -2.5537 -2.9862  0.6452
18485SOL     OW56895   1.878   5.916   8.748  0.1988  0.0386 -0.4717
18485SOL    HW156896   1.950   5.852   8.745 -0.4833 -0.8618  0.9374
18485SOL    HW256897   1.799   5.864   8.729 -0.2702  0.6368 -0.1905
18486SOL     OW56898   3.232   5.857  11.175  0.0783 -0.5550 -0.2013
18486SOL    HW156899   3.170   5.800  11.131  1.4449 -1.1502 -1.4554
18486SOL    HW256900   3.317   5.833  11.137  0.7860  1.8452 -0.3074
18487SOL     OW56901   1.759   0.394   0.348  0.0871 -0.1186 -0.5073
18487SOL    HW156902   1.815   0.327   0.309  0.8892  0.9978 -1.3194
18487SOL    HW256903   1.791   0.404   0.437 -1.5670 -2.4764  0.4416
18488SOL     OW56904   7.136   4.228   0.021 -0.3527 -0.0567 -0.0579
18488SOL    HW156905   7.145   4.323   0.035  0.9792 -0.1733  0.0703
18488SOL    HW256906   7.163   4.215  -0.070  1.8043 -0.5428  0.5825
18489SOL     OW56907   1.462   6.128  11.399  0.1642 -0.2089  0.3210
18489SOL    HW156908   1.386   6.179  11.427  1.1381  0.6521  1.5265
18489SOL    HW256909   1.437   6.092  11.314 -1.0560  1.2080  0.0332
18490SOL     OW56910   3.974   3.972  12.359 -0.2786 -0.5329  0.3308
18490SOL    HW156911   4.046   3.964  12.296  0.0170  0.1848  0.5607
18490SOL    HW256912   3.900   4.003  12.306 -1.1501 -3.5313 -0.3704
18491SOL     OW56913   2.597   0.158   5.174 -0.0310  0.2136 -0.5104
18491SOL    HW156914   2.684   0.196   5.166 -0.0472  0.3386 -0.1354
18491SOL    HW256915   2.555   0.174   5.090  0.3836 -0.0326 -0.7614
18492SOL     OW56916   6.890   0.436   5.137  0.1335 -0.0513 -0.2799
18492SOL    HW156917   6.837   0.430   5.217 -0.8586  1.0258 -0.8195
18492SOL    HW256918   6.876   0.526   5.106 -0.0908 -0.6687 -2.0673
18493SOL     OW56919   3.531   7.672   3.381  0.3676 -0.5453 -0.2457
18493SOL    HW156920   3.462   7.687   3.316 -1.0171  0.6252  1.3951
18493SOL    HW256921   3.498   7.599   3.433  1.5592 -1.5988 -0.9184
18494SOL     OW56922   1.832   4.622  10.085 -0.0487  0.2514 -0.3900
18494SOL    HW156923   1.842   4.531  10.055 -0.3108  0.0491  0.1226
18494SOL    HW256924   1.892   4.628  10.160 -1.2184  0.0212  0.5883
18495SOL     OW56925   3.646   2.802  10.025  0.6838 -0.8089  0.1988
18495SOL    HW156926   3.604   2.873  10.073 -0.3273 -1.2715  0.0199
18495SOL    HW256927   3.647   2.728  10.087  0.7828 -0.9542  0.0261
18496SOL     OW56928   7.204   5.731  11.900 -0.4901 -0.4629  0.0763
18496SOL    HW156929   7.260   5.678  11.957 -1.0249 -1.4525 -0.2844
18496SOL    HW256930   7.215   5.691  11.813  0.5567  1.2040 -0.6118
18497SOL     OW56931   2.268   6.752   8.364  0.3967  0.6247  0.1328
18497SOL    HW156932   2.327   6.794   8.301 -0.5265  0.7693 -0.6592
18497SOL    HW256933   2.264   6.661   8.334 -0.5959  0.8492 -0.4673
18498SOL     OW56934   5.086   7.333   6.162 -0.3638  0.0147  0.2419
18498SOL    HW156935   4.995   7.303   6.164 -0.1385 -0.6994  0.0056
18498SOL    HW256936   5.137   7.254   6.146  0.2328  0.5452 -0.5322
18499SOL     OW56937   1.596   1.191  12.237  0.3815  0.0492 -0.1449
18499SOL    HW156938   1.616   1.276  12.275 -0.2283  0.1818 -0.1115
18499SOL    HW256939   1.537   1.150  12.300  0.0146 -0.0622 -0.5588
18500SOL     OW56940   7.101   5.847   9.473 -1.6235  0.4640  0.4889
18500SOL    HW156941   7.064   5.766   9.509  0.0133 -0.1152  0.9392
18500SOL    HW256942   7.109   5.830   9.379  0.2720 -0.5823  0.7968
18501SOL     OW56943   5.329   0.097  10.163 -0.3402  0.2360  0.2879
18501SOL    HW156944   5.241   0.109  10.200  0.3466  1.9013  1.5094
18501SOL    HW256945   5.357   0.012  10.196 -0.6153  0.7087  1.8288
18502SOL     OW56946   2.506   4.016   7.824 -0.4871 -0.2844  0.6459
18502SOL    HW156947   2.563   3.974   7.889 -0.4017  2.0010  2.1818
18502SOL    HW256948   2.527   3.972   7.742  4.9203  1.4460  0.6722
18503SOL     OW56949   5.272   5.267   2.061  0.2403 -0.1122 -0.0601
18503SOL    HW156950   5.196   5.214   2.087  0.3528 -0.3884 -0.2858
18503SOL    HW256951   5.338   5.203   2.034  1.7862 -0.0597  3.1974
18504SOL     OW56952   5.126   3.552   1.210  0.0930 -0.2476 -0.0206
18504SOL    HW156953   5.039   3.525   1.182 -1.3255  2.6977  1.0830
18504SOL    HW256954   5.145   3.497   1.286 -0.9795 -0.6653 -0.0337
18505SOL     OW56955   4.969   6.461   0.838 -0.3056 -0.0015  0.2997
18505SOL    HW156956   4.919   6.389   0.798  0.5795 -0.1740 -0.5608
18505SOL    HW256957   4.980   6.434   0.929  0.4401 -1.2338 -0.1218
18506SOL     OW56958   6.678   4.462   3.603 -0.2631 -0.3811 -0.1783
18506SOL    HW156959   6.609   4.452   3.669 -0.9803 -0.1149 -0.8654
18506SOL    HW256960   6.731   4.535   3.634 -1.9737  1.3136 -1.0236
18507SOL     OW56961   0.131   5.467   1.039 -0.2248  0.1404 -0.5658
18507SOL    HW156962   0.118   5.510   1.124 -1.4567 -0.2114 -0.5560
18507SOL    HW256963   0.226   5.461   1.030 -0.0643 -0.0288  0.9067
18508SOL     OW56964   7.442   3.393   4.986 -0.0638  0.3859 -0.0001
18508SOL    HW156965   7.358   3.365   5.020  1.1625 -0.4184  2.5986
18508SOL    HW256966   7.455   3.341   4.907 -1.1193 -0.9861  0.6986
18509SOL     OW56967   2.208   3.910   9.781  0.2063  0.0100 -0.1263
18509SOL    HW156968   2.282   3.865   9.821 -0.2010  0.6914  1.4826
18509SOL    HW256969   2.168   3.844   9.724  0.3648 -1.2797  1.1987
18510SOL     OW56970   1.129   5.103   2.416 -0.1434  0.1861 -0.1267
18510SOL    HW156971   1.063   5.151   2.466 -0.5756 -2.0801  1.6004
18510SOL    HW256972   1.101   5.012   2.420  2.2154 -0.6318 -0.7634
18511SOL     OW56973   4.077   0.538   2.118  0.4271 -0.1486  0.6613
18511SOL    HW156974   4.168   0.552   2.092  0.6834 -0.4624  1.3760
18511SOL    HW256975   4.075   0.449   2.154 -0.4384 -0.6449 -0.5306
18512SOL     OW56976   4.018   5.854   2.162 -0.0419 -0.1024 -0.2027
18512SOL    HW156977   4.084   5.813   2.218 -0.9851 -1.3833  0.0068
18512SOL    HW256978   3.993   5.785   2.100 -0.0100  0.8714 -1.3375
18513SOL     OW56979   7.954   4.519   2.659 -0.4063  0.1664 -0.5982
18513SOL    HW156980   7.863   4.515   2.687 -1.4151 -1.3843 -3.6813
18513SOL    HW256981   7.966   4.443   2.603  2.2793  1.2937 -1.7681
18514SOL     OW56982   2.721   5.283   1.170 -0.1657 -0.3544 -0.1712
18514SOL    HW156983   2.773   5.322   1.240 -0.9537 -3.2708  2.2139
18514SOL    HW256984   2.774   5.209   1.140 -1.9461 -2.1499  0.9030
18515SOL     OW56985   7.674   6.548   6.922 -0.0823  0.6245 -0.0055
18515SOL    HW156986   7.582   6.576   6.931  0.2342  1.4310  0.9458
18515SOL    HW256987   7.710   6.604   6.854 -0.6402 -0.6887 -1.4664
18516SOL     OW56988   7.386   7.965   3.093 -0.3873  0.0055 -0.3796
18516SOL    HW156989   7.303   7.996   3.128 -0.9303 -2.0405  0.2699
18516SOL    HW256990   7.426   8.043   3.054 -1.0257  1.7996  2.2838
18517SOL     OW56991   5.682   1.761   2.247 -0.2785  0.2840  0.0787
18517SOL    HW156992   5.626   1.838   2.258  0.3994  0.5813  1.6267
18517SOL    HW256993   5.745   1.766   2.318 -0.0728 -1.6034  0.0838
18518SOL     OW56994   5.736   4.065   1.559 -0.3635  0.3272  0.0257
18518SOL    HW156995   5.692   4.117   1.627  0.8543 -0.1622  1.2444
18518SOL    HW256996   5.687   3.983   1.557  0.4251 -0.2152  1.3752
18519SOL     OW56997   7.316   0.602   0.274  0.8121  0.0472 -0.6716
18519SOL    HW156998   7.365   0.674   0.235 -0.7562  1.1780 -0.6636
18519SOL    HW256999   7.307   0.626   0.366 -0.8462  0.5486 -0.9320
18520SOL     OW57000   1.188   0.188   6.416 -0.6145 -0.0020  0.9560
18520SOL    HW157001   1.257   0.254   6.421  1.1468 -1.4737 -1.5169
18520SOL    HW257002   1.146   0.204   6.332 -0.7875 -1.4098  0.7494
18521SOL     OW57003   3.030   1.678   9.649 -0.2405  0.0107 -0.1955
18521SOL    HW157004   3.108   1.647   9.603 -1.1252  0.2835 -2.0101
18521SOL    HW257005   3.005   1.605   9.706 -1.2516 -2.1011 -3.0208
18522SOL     OW57006   0.274   0.855   3.614  0.6612 -0.3707 -0.4433
18522SOL    HW157007   0.276   0.767   3.576 -0.6706 -0.2080 -0.9334
18522SOL    HW257008   0.214   0.847   3.688  0.3214  0.1887 -0.6586
18523SOL     OW57009   6.302   2.344   5.996 -0.2442  0.6827 -0.7464
18523SOL    HW157010   6.370   2.279   5.980  0.2689  0.8523  0.5887
18523SOL    HW257011   6.349   2.419   6.032 -1.0757  1.0082 -0.3174
18524SOL     OW57012   4.602   0.626   9.992 -0.3769 -0.4930 -0.4843
18524SOL    HW157013   4.657   0.556  10.027 -0.3155 -0.0641  0.2873
18524SOL    HW257014   4.634   0.640   9.903 -1.4555 -2.5829 -1.2820
18525SOL     OW57015   0.085   0.527   8.293  0.2571 -0.0335 -0.1809
18525SOL    HW157016   0.168   0.573   8.280  0.4272 -0.3931 -0.3919
18525SOL    HW257017   0.026   0.593   8.330  0.2362  0.6060 -1.3095
18526SOL     OW57018   6.106   5.473   5.191 -0.1334 -0.1412  0.8068
18526SOL    HW157019   6.091   5.545   5.252  1.3259  0.1523  0.8591
18526SOL    HW257020   6.149   5.514   5.115 -0.1741 -0.8006  0.4168
18527SOL     OW57021   6.349   0.407   2.917 -0.2766  0.2351  0.4251
18527SOL    HW157022   6.298   0.394   2.837 -0.9759  1.8793  0.5649
18527SOL    HW257023   6.405   0.330   2.922 -0.1390  0.1237 -1.7146
18528SOL     OW57024   4.031   0.348   4.086 -0.3783  0.0826 -0.0051
18528SOL    HW157025   4.069   0.397   4.013  0.8980 -1.3494 -0.3513
18528SOL    HW257026   4.103   0.294   4.119 -1.7279 -1.6519  0.2619
18529SOL     OW57027   7.036   1.121   0.085 -0.0651  0.4070 -0.1851
18529SOL    HW157028   6.997   1.040   0.117  1.9284 -1.4383 -2.0340
18529SOL    HW257029   7.125   1.121   0.120  1.1015 -0.0496 -2.8879
18530SOL     OW57030   6.547   4.084   2.093 -0.0473 -0.0961 -0.4222
18530SOL    HW157031   6.548   4.006   2.038  0.4829 -0.4539  0.0796
18530SOL    HW257032   6.550   4.050   2.183  2.1513  0.5199 -0.2191
18531SOL     OW57033   6.078   1.312   3.402  0.2471 -0.1550 -0.0157
18531SOL    HW157034   6.055   1.354   3.485  1.6116  1.5187 -0.4174
18531SOL    HW257035   6.001   1.260   3.379 -1.4955  2.0010  0.6175
18532SOL     OW57036   6.893   2.997   1.601  0.1341 -0.5905 -0.8831
18532SOL    HW157037   6.818   2.984   1.543 -1.5857  1.3978  0.7732
18532SOL    HW257038   6.898   2.915   1.651 -1.6896 -0.3512 -0.2291
18533SOL     OW57039   3.298   5.224   5.976  0.3713 -0.5170  0.2509
18533SOL    HW157040   3.243   5.295   6.009 -0.1588 -1.1507  0.7640
18533SOL    HW257041   3.236   5.154   5.956  1.0524 -1.5031  1.5035
18534SOL     OW57042   4.531   1.484   1.225  0.0780  0.7018  0.7995
18534SOL    HW157043   4.500   1.561   1.178 -0.6825  0.5587  1.0601
18534SOL    HW257044   4.564   1.426   1.156  1.8663  1.7678  0.6939
18535SOL     OW57045   4.746   5.452   4.578  0.0637  0.0603  0.2764
18535SOL    HW157046   4.796   5.443   4.496  1.3602 -0.1702  1.0621
18535SOL    HW257047   4.690   5.528   4.563 -0.4358 -0.5712 -1.1769
18536SOL     OW57048   1.061   6.636   6.281  0.4763 -0.0603 -0.1407
18536SOL    HW157049   1.088   6.727   6.289  0.4135  0.0999 -1.5003
18536SOL    HW257050   1.042   6.624   6.188  0.0906 -1.3529  0.0745
18537SOL     OW57051   6.976   4.459   0.635 -0.2235 -0.7186 -0.6636
18537SOL    HW157052   6.908   4.394   0.648 -0.9080  0.3829  1.8634
18537SOL    HW257053   7.028   4.425   0.562 -1.0624 -3.6071 -0.0403
18538SOL     OW57054   7.452   2.464  10.626  0.1229  0.4853  0.4071
18538SOL    HW157055   7.525   2.525  10.614 -0.6175  1.3487  0.2174
18538SOL    HW257056   7.481   2.383  10.584  1.6157  0.2784  1.7228
18539SOL     OW57057   4.573   7.405   2.853 -0.6612  0.3613 -0.3649
18539SOL    HW157058   4.530   7.320   2.840 -0.8767  0.3289  0.4543
18539SOL    HW257059   4.666   7.385   2.848 -0.7134  0.0870 -0.2814
18540SOL     OW57060   5.799   1.993   7.515 -0.3647 -0.3053 -0.2206
18540SOL    HW157061   5.745   2.067   7.544  0.2855 -0.3240  1.0951
18540SOL    HW257062   5.887   2.030   7.507 -0.1441 -0.8055 -0.1161
18541SOL     OW57063   7.225   5.097   4.392 -0.3172  0.1455 -0.3902
18541SOL    HW157064   7.168   5.174   4.402  0.4867  1.1087 -2.5881
18541SOL    HW257065   7.267   5.088   4.478 -3.1392 -0.1611  1.0834
18542SOL     OW57066   4.745   4.483   2.822  0.1712 -0.7109  0.1237
18542SOL    HW157067   4.799   4.561   2.816 -2.2586  1.1001  0.2396
18542SOL    HW257068   4.689   4.485   2.745 -1.9471 -0.6447  1.5570
18543SOL     OW57069   5.905   2.667   3.239  0.2580 -0.2175  0.2086
18543SOL    HW157070   5.907   2.580   3.200 -1.4688  0.3910 -1.3995
18543SOL    HW257071   5.855   2.656   3.320 -0.4226 -0.6311 -0.2657
18544SOL     OW57072   0.538   3.675   4.134 -0.5887  0.4363  0.2466
18544SOL    HW157073   0.542   3.756   4.185 -0.1859  0.9793 -0.6193
18544SOL    HW257074   0.629   3.646   4.127 -0.9138 -1.5508  2.7386
18545SOL     OW57075   0.086   5.462   7.639  0.0721  0.3676 -0.0082
18545SOL    HW157076   0.121   5.421   7.719  1.5202 -0.3318 -0.9546
18545SOL    HW257077   0.066   5.388   7.582 -2.5381  0.7742  0.2656
18546SOL     OW57078   4.423   1.399  10.034 -0.1389 -0.0859 -0.7803
18546SOL    HW157079   4.363   1.363  10.100  0.9007  0.6460  0.6227
18546SOL    HW257080   4.366   1.439   9.968 -1.2152 -1.1847 -0.5426
18547SOL     OW57081   3.836   6.219   5.944  0.0705  0.1295 -0.3203
18547SOL    HW157082   3.788   6.298   5.917 -0.4093 -1.0799 -3.3556
18547SOL    HW257083   3.922   6.251   5.970 -0.5875  1.7872 -0.0311
18548SOL     OW57084   6.571   7.058   2.009 -0.4748 -0.3453  0.8075
18548SOL    HW157085   6.666   7.054   2.003 -0.5917 -1.8997 -1.8941
18548SOL    HW257086   6.549   7.007   2.087  0.9047  0.9497  2.0917
18549SOL     OW57087   5.772   0.100   4.705 -0.0339 -0.1618  0.1959
18549SOL    HW157088   5.839   0.120   4.640  0.9253 -0.6294  1.0119
18549SOL    HW257089   5.691   0.134   4.667  0.1295 -2.0792 -2.1045
18550SOL     OW57090   2.359   0.717   6.532  0.4823 -0.3185 -0.5819
18550SOL    HW157091   2.276   0.672   6.516  0.6249  0.0384 -2.7237
18550SOL    HW257092   2.335   0.797   6.578  0.1188 -1.9710  2.3384
18551SOL     OW57093   3.729   4.496   6.530  0.3123 -0.0216  0.3616
18551SOL    HW157094   3.809   4.450   6.555  0.9877  0.5471 -0.6610
18551SOL    HW257095   3.741   4.585   6.562 -0.3117 -0.1498  0.9790
18552SOL     OW57096   5.611   1.957   8.994 -0.4652 -0.1094  0.7093
18552SOL    HW157097   5.614   2.048   9.024 -0.5058  0.1753 -0.1155
18552SOL    HW257098   5.524   1.948   8.956 -0.4466 -0.4807  0.7580
18553SOL     OW57099   7.292   7.410   5.696  0.0857 -0.5571 -0.3006
18553SOL    HW157100   7.333   7.467   5.761  1.8077  2.4785 -3.6931
18553SOL    HW257101   7.198   7.421   5.709  0.3571 -0.4867  1.9156
18554SOL     OW57102   6.845   5.593   8.407  0.0528 -0.5371  0.4144
18554SOL    HW157103   6.824   5.565   8.496  2.1013  0.8764  1.4179
18554SOL    HW257104   6.838   5.513   8.355 -1.0327 -1.4240  1.8387
18555SOL     OW57105   0.349   0.337   8.346 -0.4850 -0.1408  0.7181
18555SOL    HW157106   0.318   0.337   8.436  1.6636 -0.1405  1.5162
18555SOL    HW257107   0.297   0.269   8.303 -0.9604 -0.7335  2.1621
18556SOL     OW57108   3.315   0.215   9.669 -0.6834  0.0282  0.1531
18556SOL    HW157109   3.397   0.208   9.620 -0.5827  1.2398  0.1164
18556SOL    HW257110   3.296   0.126   9.697  1.1801 -0.1199  1.0399
18557SOL     OW57111   7.889   6.960   2.084  0.4682  0.1866  0.2925
18557SOL    HW157112   7.915   6.869   2.103  3.2075  1.1906  1.8975
18557SOL    HW257113   7.847   6.990   2.165 -0.7872  0.2659 -0.3729
18558SOL     OW57114   6.656   5.167   3.830 -0.5460 -0.4995  0.0892
18558SOL    HW157115   6.569   5.160   3.869 -1.0582  1.5544 -0.5452
18558SOL    HW257116   6.704   5.092   3.864 -1.8237 -0.3685  2.3672
18559SOL     OW57117   4.310   0.100   2.257 -0.1893 -0.2750  0.3563
18559SOL    HW157118   4.348   0.073   2.173 -4.5134 -0.5894 -1.7690
18559SOL    HW257119   4.282   0.018   2.297  0.3625  0.0113  1.3485
18560SOL     OW57120   7.836   7.836   0.519 -0.3659  0.1548 -0.5334
18560SOL    HW157121   7.925   7.816   0.489 -0.5525  1.4398 -2.0988
18560SOL    HW257122   7.811   7.762   0.574  1.5036 -0.4291 -0.4150
18561SOL     OW57123   6.974   4.657   7.472  0.8794 -0.2809 -0.1487
18561SOL    HW157124   7.003   4.690   7.557  0.4079  0.3763 -0.2436
18561SOL    HW257125   6.910   4.589   7.494  0.5004  0.1264  0.0192
18562SOL     OW57126   2.006   1.187   9.992 -0.4147 -0.3679 -0.1292
18562SOL    HW157127   1.937   1.146  10.043  0.3027  0.0366  1.1999
18562SOL    HW257128   1.960   1.228   9.919 -1.5362 -0.3992  0.5327
18563SOL     OW57129   7.654   4.309   9.606  0.1133 -0.0732 -0.2553
18563SOL    HW157130   7.710   4.290   9.530  0.8952  0.5247  0.1489
18563SOL    HW257131   7.657   4.230   9.659 -1.6066 -1.0601 -1.5072
18564SOL     OW57132   5.501   7.336   9.939 -0.2577 -0.2419 -0.5347
18564SOL    HW157133   5.509   7.419   9.986 -0.1336 -0.1803 -0.6681
18564SOL    HW257134   5.412   7.338   9.904  0.4609  0.8303 -2.4378
18565SOL     OW57135   0.922   7.138   9.128  0.3866  0.3011 -0.1167
18565SOL    HW157136   0.939   7.127   9.221 -0.5230  0.0904  0.0425
18565SOL    HW257137   0.908   7.232   9.117 -0.7654  0.1877  0.2133
18566SOL     OW57138   7.913   0.735   8.425 -0.2120 -0.4500  0.2360
18566SOL    HW157139   7.939   0.795   8.495 -0.2584  0.2313 -0.3252
18566SOL    HW257140   7.833   0.695   8.457 -0.2492 -0.1201  0.5623
18567SOL     OW57141   1.907   2.776  10.131  0.3051 -0.5547  0.3889
18567SOL    HW157142   1.812   2.783  10.128  0.3793  0.8042  0.7713
18567SOL    HW257143   1.937   2.827  10.056  0.7460 -1.0296  0.2332
18568SOL     OW57144   7.518   3.956   6.014  0.2126 -0.0909  0.1958
18568SOL    HW157145   7.603   3.968   6.055 -0.3900  0.1938  1.3956
18568SOL    HW257146   7.471   3.895   6.072 -0.2927 -0.5012 -0.6170
18569SOL     OW57147   0.105   2.511   1.967 -0.5654 -0.2312 -0.1219
18569SOL    HW157148   0.016   2.498   1.999 -0.0862 -0.0962  1.3401
18569SOL    HW257149   0.131   2.597   1.999  0.2774 -0.4849 -0.0746
18570SOL     OW57150   6.205   6.344   8.918 -0.1360 -0.9074 -0.0549
18570SOL    HW157151   6.240   6.264   8.878 -1.5916 -0.3828 -2.6132
18570SOL    HW257152   6.267   6.412   8.892 -1.6415 -0.3784 -2.5621
18571SOL     OW57153   5.489   3.472   7.984 -0.7346 -0.4057  0.6263
18571SOL    HW157154   5.549   3.398   7.989  2.5343  1.9943  0.3080
18571SOL    HW257155   5.486   3.494   7.891 -1.7019 -0.1322  0.7112
18572SOL     OW57156   0.422   7.216   6.445  0.6439  0.0714  0.0390
18572SOL    HW157157   0.433   7.130   6.485  1.2315 -0.3970 -1.0962
18572SOL    HW257158   0.369   7.199   6.366 -0.9348  1.0445  0.8290
18573SOL     OW57159   6.044   5.586   7.356 -0.5857 -0.4838  0.4112
18573SOL    HW157160   6.125   5.539   7.376 -1.6553 -1.1700  4.0045
18573SOL    HW257161   5.975   5.521   7.371 -1.8912  0.6187 -0.5438
18574SOL     OW57162   1.161   1.165   4.055 -0.0414  0.1432  1.0686
18574SOL    HW157163   1.206   1.138   4.135  2.6303 -2.7770 -1.1361
18574SOL    HW257164   1.223   1.223   4.011  0.7873 -2.0577 -0.9256
18575SOL     OW57165   0.348   2.959  10.782  0.0720  0.4104 -0.2942
18575SOL    HW157166   0.295   3.038  10.793  0.0291  0.2896  0.3584
18575SOL    HW257167   0.435   2.992  10.760 -0.2893  0.6081 -1.5037
18576SOL     OW57168   1.367   4.050   0.519  0.1630 -0.0427  0.4223
18576SOL    HW157169   1.379   3.961   0.486  0.9412 -0.0398  0.6787
18576SOL    HW257170   1.276   4.051   0.551 -0.4440 -0.2040 -1.1744
18577SOL     OW57171   5.332   7.043   5.508  0.2091  0.2375 -0.2837
18577SOL    HW157172   5.284   6.963   5.491  0.7882 -0.2917  0.5071
18577SOL    HW257173   5.291   7.080   5.586  0.2889  0.4415 -0.3359
18578SOL     OW57174   6.774   1.086   3.624 -0.1371  0.2357  0.2717
18578SOL    HW157175   6.691   1.039   3.634 -0.1307  0.1030 -0.2549
18578SOL    HW257176   6.769   1.124   3.536  0.6119 -0.2559  0.0109
18579SOL     OW57177   5.260   7.445  11.468 -0.6992  0.2779  0.5610
18579SOL    HW157178   5.352   7.434  11.448 -0.5545  0.9545  0.8334
18579SOL    HW257179   5.250   7.409  11.557 -1.0565 -1.3998 -0.1165
18580SOL     OW57180   0.501   5.364   9.886  0.1343  0.1207  0.1589
18580SOL    HW157181   0.564   5.368   9.958  0.2147 -0.3697  0.1238
18580SOL    HW257182   0.418   5.343   9.928  0.1521 -0.0202  0.1239
18581SOL     OW57183   0.358   3.235   6.456  0.2065  0.5080  0.0211
18581SOL    HW157184   0.346   3.294   6.531 -0.1735 -1.3681  1.5358
18581SOL    HW257185   0.275   3.186   6.451  0.6106 -0.0981 -0.9867
18582SOL     OW57186   6.675   3.326  10.359 -0.0603  0.3066  0.0938
18582SOL    HW157187   6.591   3.336  10.313  0.1160 -0.3524 -0.3868
18582SOL    HW257188   6.736   3.378  10.308  0.0334 -0.0421 -0.1582
18583SOL     OW57189   0.265   7.283  10.616 -0.0922  0.0763  0.3050
18583SOL    HW157190   0.283   7.193  10.645  3.0387  0.6269  0.4517
18583SOL    HW257191   0.306   7.287  10.529  0.1243  1.4727  0.4648
18584SOL     OW57192   4.644   0.993   9.729 -0.1623  0.0447 -0.9534
18584SOL    HW157193   4.596   1.058   9.780 -1.2501 -0.9682 -0.6537
18584SOL    HW257194   4.622   1.013   9.638 -0.1020  0.3867 -0.8936
18585SOL     OW57195   7.430   3.496  11.732  0.2802  0.6123  0.2901
18585SOL    HW157196   7.374   3.548  11.673 -0.7696  1.0770  1.6335
18585SOL    HW257197   7.397   3.516  11.819  0.7580 -1.2786  0.9510
18586SOL     OW57198   3.654   7.153   8.982 -0.3641  0.0588 -0.7091
18586SOL    HW157199   3.623   7.081   9.037 -1.5877  0.5249 -0.7657
18586SOL    HW257200   3.749   7.154   8.995 -0.3826 -1.2694 -0.3616
18587SOL     OW57201   6.287   4.007   7.852 -0.5182 -0.0612  0.3640
18587SOL    HW157202   6.293   3.915   7.826  1.8508 -0.3342  1.6105
18587SOL    HW257203   6.371   4.026   7.893 -0.9465  2.6937  0.1424
18588SOL     OW57204   0.727   2.186   6.771  0.1905 -0.1831 -0.3237
18588SOL    HW157205   0.729   2.271   6.815 -1.7404  0.2642 -1.0119
18588SOL    HW257206   0.660   2.136   6.819  0.5915 -0.9597 -0.5569
18589SOL     OW57207   7.441   1.144  11.268  0.2784 -0.1943 -0.3244
18589SOL    HW157208   7.352   1.169  11.243  0.3955  0.1000 -0.4590
18589SOL    HW257209   7.477   1.224  11.308  0.3379 -0.4402  0.1176
18590SOL     OW57210   6.934   2.470   7.475  0.0530 -0.0812  1.0949
18590SOL    HW157211   6.895   2.428   7.552  0.0275  2.6435  2.6975
18590SOL    HW257212   6.866   2.529   7.443  1.1627  1.2296  1.0343
18591SOL     OW57213   4.810   6.894   2.923 -0.2729  0.2666 -0.3455
18591SOL    HW157214   4.870   6.967   2.939 -0.6083  0.7060 -1.0410
18591SOL    HW257215   4.821   6.837   2.999  1.3518  0.1199 -0.6588
18592SOL     OW57216   2.966   3.225   0.973 -0.4640 -0.3013 -0.0179
18592SOL    HW157217   3.008   3.170   0.906 -0.4989  1.2570 -1.3735
18592SOL    HW257218   2.996   3.187   1.056 -1.1384 -2.8711 -0.8338
18593SOL     OW57219   7.191   5.640   4.148 -0.3173 -0.3317 -0.3107
18593SOL    HW157220   7.145   5.630   4.232  1.3462  0.0850  0.7085
18593SOL    HW257221   7.133   5.695   4.095 -1.5066 -0.7919  0.4721
18594SOL     OW57222   6.788   6.042   9.435 -0.1069  0.1296  0.4584
18594SOL    HW157223   6.852   6.094   9.386 -1.4884  1.7059  0.2362
18594SOL    HW257224   6.812   6.053   9.527  0.5923 -0.2259  0.3248
18595SOL     OW57225   4.433   0.550  12.031  0.0581  0.4621 -0.1329
18595SOL    HW157226   4.430   0.533  12.125 -0.9501 -1.9057 -0.5334
18595SOL    HW257227   4.446   0.645  12.024  0.3594  0.6626  2.3717
18596SOL     OW57228   5.418   5.971   1.210  0.1182  0.0565  0.1428
18596SOL    HW157229   5.454   6.059   1.206  0.1287  0.0717  0.5451
18596SOL    HW257230   5.379   5.964   1.297 -0.6193 -0.0486 -0.1862
18597SOL     OW57231   0.466   1.749   0.332 -0.3826  0.3609  0.4597
18597SOL    HW157232   0.477   1.739   0.426 -1.3587  0.3436  0.5805
18597SOL    HW257233   0.372   1.757   0.319 -0.6649 -3.1272 -0.8375
18598SOL     OW57234   0.908   7.627   5.012 -0.6408  0.2250  0.3080
18598SOL    HW157235   0.943   7.618   4.923 -1.9733 -1.2808 -0.1228
18598SOL    HW257236   0.892   7.537   5.040 -1.1990  0.7270  1.6976
18599SOL     OW57237   2.302   7.474   9.485 -0.2948  0.3639 -0.1259
18599SOL    HW157238   2.314   7.380   9.472 -0.7324  0.1389  0.9719
18599SOL    HW257239   2.364   7.498   9.553  0.9536  1.2233 -1.4900
18600SOL     OW57240   5.597   5.262  11.179  0.6039 -0.5902  0.3054
18600SOL    HW157241   5.527   5.324  11.157  0.2997 -0.8899  0.4211
18600SOL    HW257242   5.565   5.216  11.256  1.4867  0.1632  1.1538
18601SOL     OW57243   1.359   3.543   1.218  0.0996  0.1370 -0.1717
18601SOL    HW157244   1.438   3.492   1.237 -1.1640 -1.3501  1.4872
18601SOL    HW257245   1.368   3.621   1.274  1.5854  1.3523 -1.9963
18602SOL     OW57246   4.093   1.217   0.774  0.2682  0.1610  0.3831
18602SOL    HW157247   4.005   1.216   0.737  0.8025 -0.0824 -0.9389
18602SOL    HW257248   4.085   1.269   0.854 -1.0710  0.1241  0.2956
18603SOL     OW57249   3.350   2.655   4.212  0.5114  0.4883  0.5313
18603SOL    HW157250   3.303   2.598   4.152 -0.2072  0.8946  0.6969
18603SOL    HW257251   3.442   2.644   4.188  0.4030 -0.7925  0.6120
18604SOL     OW57252   5.731   0.740   6.038  0.3437 -0.5539  0.0094
18604SOL    HW157253   5.723   0.712   6.128 -0.6769 -1.4356 -0.3391
18604SOL    HW257254   5.670   0.684   5.989  0.6323  0.1196 -1.1722
18605SOL     OW57255   5.371   0.999   7.968  0.3870  0.0776 -0.3506
18605SOL    HW157256   5.369   1.089   7.935  0.6045  0.1552 -0.1505
18605SOL    HW257257   5.455   0.991   8.012  0.0938 -0.0179  0.2000
18606SOL     OW57258   2.569   6.990  11.179  0.7493 -0.2106 -0.3306
18606SOL    HW157259   2.644   6.933  11.197  0.4579 -0.6065 -0.3632
18606SOL    HW257260   2.539   7.019  11.265 -0.7827 -2.2762 -0.0967
18607SOL     OW57261   7.247   2.599   3.156 -0.4248  0.5326 -0.1014
18607SOL    HW157262   7.330   2.551   3.156  0.4955  2.0392 -0.2390
18607SOL    HW257263   7.246   2.645   3.240 -0.9263  0.8332 -0.2671
18608SOL     OW57264   2.521   7.179   3.939 -0.3389  0.2898 -0.3751
18608SOL    HW157265   2.567   7.228   3.871 -0.9071  1.6147  0.1493
18608SOL    HW257266   2.558   7.212   4.021 -0.9224  0.0380 -0.0009
18609SOL     OW57267   3.058   0.920   5.336  0.1455 -0.8263  0.2697
18609SOL    HW157268   3.083   0.831   5.314  2.7474 -0.5392  1.6699
18609SOL    HW257269   3.051   0.921   5.431  0.7759  0.5548  0.3379
18610SOL     OW57270   6.084   6.324   7.880 -0.6755 -0.3958 -0.4702
18610SOL    HW157271   6.162   6.379   7.878 -0.2113 -0.9957  0.5105
18610SOL    HW257272   6.048   6.337   7.968 -0.9464 -1.1205 -0.4688
18611SOL     OW57273   7.873   6.841   8.631  0.3116  0.1437 -0.1634
18611SOL    HW157274   7.880   6.933   8.659 -3.2575  0.0061  1.8122
18611SOL    HW257275   7.920   6.792   8.698  1.2879  0.4381 -0.6200
18612SOL     OW57276   5.068   4.836   7.208  0.1096 -0.0592  0.0952
18612SOL    HW157277   5.151   4.815   7.165 -0.6575 -0.3215 -1.3036
18612SOL    HW257278   5.062   4.932   7.203  0.2001 -0.0594 -0.0297
18613SOL     OW57279   3.726   3.272   9.405  0.0978  0.3508  0.6878
18613SOL    HW157280   3.697   3.220   9.330  0.7960 -1.5035  1.6360
18613SOL    HW257281   3.647   3.287   9.456 -0.3960  1.6908 -0.4184
18614SOL     OW57282   4.207   5.421   9.758  0.1339  0.2293  0.6755
18614SOL    HW157283   4.299   5.446   9.760  0.2369 -0.1712  0.9626
18614SOL    HW257284   4.190   5.384   9.845 -0.2983  0.3053  0.6258
18615SOL     OW57285   5.297   4.640   4.087  0.0941  0.1062  0.0889
18615SOL    HW157286   5.277   4.624   4.179  1.1378 -1.1312  0.1139
18615SOL    HW257287   5.367   4.706   4.089  1.0411 -0.8832  0.2418
18616SOL     OW57288   0.323   5.821  12.192  0.1812 -0.1996  0.7527
18616SOL    HW157289   0.278   5.802  12.109 -0.1605  1.5888  0.4932
18616SOL    HW257290   0.403   5.769  12.187  0.2221 -0.0578 -0.7801
18617SOL     OW57291   3.408   5.663   6.100 -0.0128  0.3097  0.1327
18617SOL    HW157292   3.335   5.712   6.137 -0.7060 -1.1006  0.6888
18617SOL    HW257293   3.404   5.681   6.006 -0.3258  1.1954  0.3057
18618SOL     OW57294   3.624   0.179  10.681  0.2417 -0.2918  0.3365
18618SOL    HW157295   3.668   0.221  10.755 -0.4075 -0.1013  0.6275
18618SOL    HW257296   3.663   0.220  10.603  0.2076  0.2481  0.5985
18619SOL     OW57297   6.681   5.126   1.446 -0.2784 -0.3153  0.4439
18619SOL    HW157298   6.666   5.149   1.354 -0.3865 -0.3738  0.4473
18619SOL    HW257299   6.626   5.187   1.495 -0.5982 -0.6052  0.4515
18620SOL     OW57300   3.636   0.193   7.708 -0.4588  0.3415  0.2701
18620SOL    HW157301   3.628   0.251   7.784 -0.8583  0.3118  0.2522
18620SOL    HW257302   3.676   0.113   7.743  0.1286  0.6369  0.2882
18621SOL     OW57303   2.969   3.021  12.386  0.1248  0.4864 -0.4106
18621SOL    HW157304   2.891   2.970  12.364  1.3692 -1.5002 -0.4847
18621SOL    HW257305   2.956   3.047  12.477 -1.6037  2.1418 -1.0818
18622SOL     OW57306   5.509   2.689   0.007 -0.5443 -0.1590  0.9172
18622SOL    HW157307   5.428   2.693  -0.043 -0.8136  0.0495  1.3649
18622SOL    HW257308   5.505   2.765   0.066 -1.0389 -1.3141  2.4553
18623SOL     OW57309   3.507   1.298   7.144 -0.1734 -0.6563  0.1896
18623SOL    HW157310   3.482   1.333   7.229  2.0169  1.5084  0.0394
18623SOL    HW257311   3.566   1.225   7.165 -0.0057 -0.4280  0.5042
18624SOL     OW57312   1.429   3.693   6.124  0.0060 -0.6664  0.9601
18624SOL    HW157313   1.446   3.753   6.197  1.4643  0.4599 -0.2497
18624SOL    HW257314   1.447   3.744   6.045  0.4831 -2.4424 -0.1574
18625SOL     OW57315   3.313   0.890   5.933  0.4639 -0.2960  0.0570
18625SOL    HW157316   3.330   0.821   5.997  0.5461  0.9296  1.4140
18625SOL    HW257317   3.224   0.920   5.953  0.3833 -0.0840 -0.5873
18626SOL     OW57318   3.401   4.748   2.903  0.0126 -0.0568 -0.1854
18626SOL    HW157319   3.354   4.666   2.892 -1.0063  0.6715 -1.4100
18626SOL    HW257320   3.429   4.772   2.815  0.5071  0.7960  0.1953
18627SOL     OW57321   1.752   0.764   2.795  0.6686 -0.5185 -0.4131
18627SOL    HW157322   1.701   0.692   2.758 -0.6462  0.1212  0.0849
18627SOL    HW257323   1.686   0.826   2.826  1.7475 -0.0199  0.9647
18628SOL     OW57324   3.322   1.911   9.742 -0.5155 -0.1294 -0.2247
18628SOL    HW157325   3.349   1.892   9.652 -1.0863  1.5311 -0.7975
18628SOL    HW257326   3.309   1.826   9.782  0.3484 -0.9123 -1.5358
18629SOL     OW57327   0.691   2.377   9.676  0.9561 -0.5329  0.1967
18629SOL    HW157328   0.741   2.422   9.608 -0.1450 -0.7154 -0.7548
18629SOL    HW257329   0.750   2.309   9.707  1.4303 -0.5378 -0.6756
18630SOL     OW57330   1.213   7.374   4.905 -0.0745  0.7052  0.5465
18630SOL    HW157331   1.162   7.365   4.824 -1.8113 -2.3141  1.8068
18630SOL    HW257332   1.290   7.318   4.891 -0.6908 -0.3292  1.1277
18631SOL     OW57333   0.134   4.304   5.551  0.2803  0.0472 -0.0391
18631SOL    HW157334   0.208   4.277   5.496  0.0462  0.8696 -0.7829
18631SOL    HW257335   0.079   4.226   5.556  0.1561  0.0306 -1.2574
18632SOL     OW57336   1.982   4.903   7.466 -0.0845  0.0027 -0.1942
18632SOL    HW157337   2.037   4.842   7.416 -0.1987  0.2411 -0.6172
18632SOL    HW257338   1.993   4.987   7.421 -0.3633  0.1708  0.0510
18633SOL     OW57339   7.156   7.522   6.412  0.1386  0.1921  0.1870
18633SOL    HW157340   7.194   7.442   6.447  1.3542  0.5395 -0.2812
18633SOL    HW257341   7.180   7.522   6.319 -0.8277  0.5359 -0.0692
18634SOL     OW57342   7.892   3.328   7.791  0.2411 -0.3074 -0.2747
18634SOL    HW157343   7.871   3.362   7.878 -1.4750 -0.3536 -0.6244
18634SOL    HW257344   7.874   3.234   7.797 -1.1106 -0.1244 -0.9772
18635SOL     OW57345   6.847   7.743  11.268 -0.3868 -0.1992  0.0301
18635SOL    HW157346   6.862   7.648  11.271 -1.1428 -0.3729 -1.0579
18635SOL    HW257347   6.801   7.757  11.186  0.7828  1.2839 -0.4127
18636SOL     OW57348   5.250   5.504   3.786  0.0135  0.0182 -0.1280
18636SOL    HW157349   5.187   5.576   3.787  0.6319  0.5697 -0.4164
18636SOL    HW257350   5.198   5.426   3.808 -0.5274  0.6558  0.9238
18637SOL     OW57351   6.785   1.686   2.974  0.0969  0.0984  0.2576
18637SOL    HW157352   6.832   1.611   3.011 -0.0677 -0.7420 -1.1854
18637SOL    HW257353   6.696   1.654   2.960  0.0604  0.5156 -0.4914
18638SOL     OW57354   5.029   5.959   6.856 -0.6601  0.2096  0.0362
18638SOL    HW157355   4.972   5.972   6.780 -1.0163 -3.6791 -0.6065
18638SOL    HW257356   5.094   6.028   6.849 -2.4215  1.8369 -2.0369
18639SOL     OW57357   7.630   6.759   5.399  0.0506  0.2221 -0.3696
18639SOL    HW157358   7.559   6.700   5.424  0.1780 -0.8000 -2.2531
18639SOL    HW257359   7.604   6.844   5.434 -0.6011 -0.7225  1.5767
18640SOL     OW57360   7.554   1.491   5.387 -0.3092 -0.6258 -0.2285
18640SOL    HW157361   7.630   1.475   5.332  0.9357  2.4299  0.3849
18640SOL    HW257362   7.585   1.479   5.476 -0.8921 -0.5597 -0.0089
18641SOL     OW57363   5.322   6.664  11.779 -0.0430  0.1697  0.6117
18641SOL    HW157364   5.288   6.583  11.817  1.1327 -0.7722 -0.2534
18641SOL    HW257365   5.376   6.703  11.848 -1.6616  0.9426  1.4932
18642SOL     OW57366   5.214   1.469   3.710  0.2814 -0.6707  0.2179
18642SOL    HW157367   5.128   1.509   3.703 -0.0679 -0.9791  2.1413
18642SOL    HW257368   5.197   1.381   3.743  1.2818 -1.1002 -0.3517
18643SOL     OW57369   3.674   0.682   9.324  0.1082  0.7097  0.2531
18643SOL    HW157370   3.752   0.722   9.286  0.4997 -0.4936 -0.2276
18643SOL    HW257371   3.696   0.669   9.416  0.0572  1.3841  0.3668
18644SOL     OW57372   3.856   4.495  11.991  0.0832 -0.1866 -0.1954
18644SOL    HW157373   3.874   4.461  11.903  2.1755  1.0961 -0.3164
18644SOL    HW257374   3.761   4.487  12.000 -0.1339 -0.8131 -2.3658
18645SOL     OW57375   1.088   7.348   4.654 -0.2514  0.3791  0.1464
18645SOL    HW157376   0.993   7.353   4.661 -0.3178  1.5187 -1.2377
18645SOL    HW257377   1.110   7.395   4.573  1.3573 -1.2118 -0.4333
18646SOL     OW57378   4.434   0.032   9.893  0.3660  0.6249 -0.3211
18646SOL    HW157379   4.407   0.063   9.807 -1.0137  1.0110  0.2095
18646SOL    HW257380   4.513   0.082   9.914  0.8638  0.3396 -1.4551
18647SOL     OW57381   1.364   7.481   2.902 -0.2624 -0.3587 -0.1956
18647SOL    HW157382   1.330   7.392   2.903 -0.9864 -0.0812 -0.0975
18647SOL    HW257383   1.302   7.532   2.953  0.3388  0.1386  0.0499
18648SOL     OW57384   3.095   1.634   0.593 -0.3799 -0.1913 -0.4674
18648SOL    HW157385   3.104   1.727   0.615  1.1561 -0.4694  0.1911
18648SOL    HW257386   3.056   1.634   0.505 -1.6842  1.0313  0.0650
18649SOL     OW57387   0.358   7.017   4.126  0.1736  0.6124  0.2299
18649SOL    HW157388   0.281   6.967   4.098 -0.2045  0.5591  1.3000
18649SOL    HW257389   0.404   7.038   4.045 -1.4793  1.4967 -0.5184
18650SOL     OW57390   6.943   4.364   2.919  0.5058 -0.4443 -0.1590
18650SOL    HW157391   6.873   4.425   2.938  1.4566  0.1828  1.6230
18650SOL    HW257392   7.011   4.416   2.877  1.0242 -0.4031  0.7007
18651SOL     OW57393   3.902   5.268   9.980 -0.5223 -0.0546 -0.1288
18651SOL    HW157394   3.910   5.291   9.888 -0.0607 -0.8275 -0.2898
18651SOL    HW257395   3.828   5.207   9.983  2.4033 -4.0884 -0.8407
18652SOL     OW57396   7.023   6.395   1.158  0.1182  0.0649  0.0252
18652SOL    HW157397   6.942   6.357   1.123  0.3805 -1.2881  0.8312
18652SOL    HW257398   7.057   6.329   1.219  1.2405  1.0913  0.5621
18653SOL     OW57399   3.788   7.908  11.685  0.5329  0.1945  0.1672
18653SOL    HW157400   3.781   7.994  11.643  2.5752 -0.4177 -1.6043
18653SOL    HW257401   3.839   7.923  11.764 -1.2477  0.9577  1.2384
18654SOL     OW57402   4.794   5.971  11.952  0.3897  0.4509  0.1648
18654SOL    HW157403   4.725   5.924  11.998  1.0369  0.3265  1.0345
18654SOL    HW257404   4.853   5.903  11.921  0.0495  0.5481 -0.7011
18655SOL     OW57405   7.809   3.446   0.837 -0.1815 -0.0952 -0.8102
18655SOL    HW157406   7.786   3.478   0.750 -0.9857  0.6577 -0.3456
18655SOL    HW257407   7.854   3.519   0.879  1.1471 -0.8138 -0.9403
18656SOL     OW57408   7.954   2.063   0.880 -0.2920 -0.3372 -0.2365
18656SOL    HW157409   7.904   1.982   0.892 -1.0714  0.1542 -0.0596
18656SOL    HW257410   7.894   2.132   0.911 -0.4336  0.5052 -2.2543
18657SOL     OW57411   4.904   0.447   2.390  0.9004  0.2065  0.0458
18657SOL    HW157412   4.825   0.417   2.346  1.4710 -0.6071 -0.4368
18657SOL    HW257413   4.901   0.543   2.382 -0.3303  0.2345  0.5637
18658SOL     OW57414   1.856   4.827   9.167 -0.3272 -0.4173  0.4227
18658SOL    HW157415   1.839   4.779   9.086 -0.8457  1.0228 -0.3500
18658SOL    HW257416   1.867   4.918   9.140  2.6274 -0.3074  1.5891
18659SOL     OW57417   1.930   0.647  10.967 -0.6498  0.4308 -0.1012
18659SOL    HW157418   1.873   0.608  11.034 -1.5111  3.1774  0.9129
18659SOL    HW257419   2.011   0.669  11.015 -0.7237  1.1371 -0.2960
18660SOL     OW57420   2.781   1.784  11.268  0.1654  0.3286  0.6465
18660SOL    HW157421   2.768   1.717  11.336 -0.0099  0.2633  0.5489
18660SOL    HW257422   2.801   1.863  11.317 -0.8146  0.4860  0.8191
18661SOL     OW57423   5.794   1.475   4.750 -0.5282 -0.7383 -0.4301
18661SOL    HW157424   5.838   1.532   4.686  0.8356  0.4345  1.4609
18661SOL    HW257425   5.821   1.387   4.725  2.8327 -0.1125  0.4466
18662SOL     OW57426   7.090   6.066  10.855 -0.9377  0.3042 -0.3123
18662SOL    HW157427   7.097   6.040  10.946  1.1145  0.0960 -0.4838
18662SOL    HW257428   7.037   6.145  10.857  0.8522  1.5617  1.3571
18663SOL     OW57429   4.393   3.068   4.958 -0.2515 -0.3824  0.4856
18663SOL    HW157430   4.448   2.995   4.931  0.7143 -0.5450  2.6616
18663SOL    HW257431   4.311   3.055   4.911  0.6231 -1.6549 -0.7729
18664SOL     OW57432   3.573   1.099  10.235  0.2392  0.1393  0.5450
18664SOL    HW157433   3.539   1.074  10.321  0.1153  1.5630  0.9475
18664SOL    HW257434   3.566   1.195  10.234  0.1678  0.1459 -1.0894
18665SOL     OW57435   3.302   6.004   3.659 -0.4153 -0.2008 -0.0131
18665SOL    HW157436   3.252   6.019   3.579 -1.1316 -0.5669  0.3567
18665SOL    HW257437   3.253   5.936   3.706  0.9048 -1.2249 -0.0475
18666SOL     OW57438   1.638   3.152   9.274  0.6713  0.4285 -0.4053
18666SOL    HW157439   1.709   3.209   9.305  1.0137 -1.3454  2.5555
18666SOL    HW257440   1.562   3.179   9.325 -0.0115  0.3341 -1.3524
18667SOL     OW57441   1.901   0.483   7.033 -0.1620  0.0017  0.3941
18667SOL    HW157442   1.890   0.473   6.938 -0.1169 -1.0200  0.4840
18667SOL    HW257443   1.919   0.395   7.064  0.1321  0.3778  1.3225
18668SOL     OW57444   3.062   0.321   1.652 -0.2213  0.1425  0.5193
18668SOL    HW157445   3.045   0.317   1.558  1.5159 -0.1439  0.1826
18668SOL    HW257446   3.002   0.388   1.685 -1.0473  0.0460 -0.7305
18669SOL     OW57447   1.494   3.883   5.928  0.4563  0.1643 -0.3654
18669SOL    HW157448   1.416   3.879   5.871 -0.1646 -1.6493  0.5416
18669SOL    HW257449   1.528   3.972   5.915 -0.2172  0.1402 -2.8049
18670SOL     OW57450   1.775   1.573   0.146 -0.0664 -0.1007  0.0879
18670SOL    HW157451   1.839   1.530   0.089 -0.9516 -1.4383  0.0529
18670SOL    HW257452   1.817   1.574   0.232  0.6773  0.5982 -0.2630
18671SOL     OW57453   2.640   0.605   5.713  0.0237 -0.3473 -0.4542
18671SOL    HW157454   2.600   0.687   5.682 -1.5385 -1.4696 -1.5999
18671SOL    HW257455   2.729   0.608   5.679 -0.5386  0.1202 -1.9940
18672SOL     OW57456   0.061   3.075   1.895  0.0726 -0.0425 -0.5365
18672SOL    HW157457   0.021   2.988   1.905 -0.7562  0.2942 -0.8555
18672SOL    HW257458   0.094   3.096   1.982 -1.8233  0.3321  0.1356
18673SOL     OW57459   2.563   4.490   0.134  0.1495 -0.1103  0.4647
18673SOL    HW157460   2.578   4.434   0.210  0.6403  0.4178  0.7722
18673SOL    HW257461   2.477   4.528   0.149 -0.0576 -0.5493  0.4023
18674SOL     OW57462   5.239   7.843   1.674 -0.3741 -0.0213 -0.0441
18674SOL    HW157463   5.299   7.905   1.715  0.7166 -0.1958 -1.3056
18674SOL    HW257464   5.272   7.757   1.698 -0.0376 -0.1204 -0.8291
18675SOL     OW57465   3.477   5.950   1.884  0.0058  0.3660 -0.1586
18675SOL    HW157466   3.386   5.950   1.854 -0.7523 -0.7773  1.9601
18675SOL    HW257467   3.516   5.872   1.845 -0.3088  0.1377 -0.0153
18676SOL     OW57468   1.376   4.047  10.617  0.6132  0.1057  0.0307
18676SOL    HW157469   1.359   4.074  10.707 -0.4768  0.4383 -0.2640
18676SOL    HW257470   1.302   3.991  10.594  0.1262  1.1867 -1.1411
18677SOL     OW57471   3.130   5.789   3.750  0.1867 -0.0931 -0.0904
18677SOL    HW157472   3.056   5.738   3.716  0.3467  0.3135 -1.1030
18677SOL    HW257473   3.148   5.750   3.835 -4.4535  2.9432  2.7351
18678SOL     OW57474   1.097   2.089   2.579 -0.4749 -0.4124 -0.0505
18678SOL    HW157475   1.177   2.123   2.618 -1.1616  1.5167 -0.2374
18678SOL    HW257476   1.119   2.073   2.488 -0.4198  0.5348 -0.2051
18679SOL     OW57477   5.978   3.946   7.799  0.4486 -0.0105  0.6165
18679SOL    HW157478   5.995   4.006   7.871  0.5011  0.7125  0.0116
18679SOL    HW257479   6.065   3.920   7.768  0.4985  1.4920 -0.6571
18680SOL     OW57480   0.149   5.094   5.503  0.2900 -0.4003 -0.5993
18680SOL    HW157481   0.122   5.032   5.435  2.5827 -3.3499  0.9593
18680SOL    HW257482   0.244   5.090   5.503  0.3970  0.7065  1.7404
18681SOL     OW57483   4.573   1.478  12.026  0.4589 -0.3273  0.3877
18681SOL    HW157484   4.626   1.469  11.947 -0.1079 -0.7405  0.0486
18681SOL    HW257485   4.627   1.530  12.086  0.8249  0.1355 -0.3335
18682SOL     OW57486   7.826   6.752   6.746  0.4027  0.0677  0.3786
18682SOL    HW157487   7.891   6.763   6.816 -0.2730  1.3037  0.8420
18682SOL    HW257488   7.854   6.813   6.678  1.2011 -1.3115 -0.5876
18683SOL     OW57489   1.332   7.488  11.811  0.6585  0.1632 -0.5630
18683SOL    HW157490   1.408   7.489  11.869 -0.3432  0.2549  0.7966
18683SOL    HW257491   1.302   7.398  11.812 -1.2470  0.7041  1.7175
18684SOL     OW57492   7.260   6.733   7.450 -0.2101 -0.6375  0.0499
18684SOL    HW157493   7.169   6.740   7.423 -1.1673 -0.0258  3.0802
18684SOL    HW257494   7.305   6.802   7.402 -0.8901 -2.0292 -2.8143
18685SOL     OW57495   0.832   2.132   5.451  0.1877  0.0820 -0.1189
18685SOL    HW157496   0.806   2.079   5.375 -0.0435 -0.4304  0.3093
18685SOL    HW257497   0.841   2.221   5.416 -0.5820 -0.0206 -0.6076
18686SOL     OW57498   3.662   3.231   0.336 -0.2079 -0.1938 -0.7232
18686SOL    HW157499   3.680   3.241   0.429  1.2741  0.8690 -1.0875
18686SOL    HW257500   3.608   3.152   0.331 -0.5399 -0.1265  1.0460
18687SOL     OW57501   7.024   4.771   1.972  0.5015  0.3815 -0.2183
18687SOL    HW157502   7.090   4.808   2.031  1.1087 -1.1280  0.1069
18687SOL    HW257503   6.973   4.712   2.028  1.0759 -1.0721 -1.1710
18688SOL     OW57504   5.810   4.330  11.007 -0.2847 -0.5189  0.1186
18688SOL    HW157505   5.738   4.348  11.067  0.1712  1.3367  0.1746
18688SOL    HW257506   5.786   4.374  10.925 -0.0965 -1.5250 -0.4898
18689SOL     OW57507   7.515   0.422   7.269 -0.6471 -0.4087  0.4234
18689SOL    HW157508   7.577   0.354   7.295 -0.3223  0.1791  1.2450
18689SOL    HW257509   7.512   0.417   7.173  0.4805 -0.6118  0.3859
18690SOL     OW57510   2.817   1.531   8.381 -0.6994 -0.1077 -0.5587
18690SOL    HW157511   2.784   1.578   8.457 -1.4858 -0.1296 -0.8788
18690SOL    HW257512   2.752   1.462   8.366 -0.4714 -0.1943 -1.1535
18691SOL     OW57513   2.382   0.331  11.472 -0.0422  0.0387  0.5325
18691SOL    HW157514   2.292   0.314  11.497 -0.5130  1.8292  0.1900
18691SOL    HW257515   2.415   0.246  11.442 -1.9477 -0.4358 -0.3844
18692SOL     OW57516   2.433   7.642   9.691 -0.3003 -0.1011 -0.0954
18692SOL    HW157517   2.410   7.630   9.783  1.5859  1.1823  0.5969
18692SOL    HW257518   2.402   7.730   9.669  1.0208  0.4089 -0.0472
18693SOL     OW57519   0.891   1.145  11.667  0.2498 -0.4907 -0.4073
18693SOL    HW157520   0.936   1.062  11.651  0.6994 -0.3076 -0.1316
18693SOL    HW257521   0.962   1.209  11.674 -0.1357  0.1039 -1.6529
18694SOL     OW57522   3.400   2.832   3.587 -0.3991  0.4515  0.5740
18694SOL    HW157523   3.465   2.804   3.653 -2.1256  1.8074  2.9994
18694SOL    HW257524   3.401   2.927   3.591  0.1519  0.6588 -2.2262
18695SOL     OW57525   3.531   0.761   7.384 -0.4370 -0.0748  0.0300
18695SOL    HW157526   3.536   0.827   7.454  0.2703  1.2323 -1.2001
18695SOL    HW257527   3.622   0.747   7.358 -0.8161  1.7440 -2.6352
18696SOL     OW57528   2.680   1.633   8.912  0.1584 -0.5045 -0.2393
18696SOL    HW157529   2.620   1.609   8.841 -0.4276 -1.1997  0.4721
18696SOL    HW257530   2.625   1.679   8.975  0.4889 -0.6405  0.1545
18697SOL     OW57531   3.426   2.268   4.702 -0.1621 -0.0709  0.5560
18697SOL    HW157532   3.441   2.209   4.776  0.1182 -1.8407 -0.8462
18697SOL    HW257533   3.331   2.266   4.689 -0.0897 -0.7450  0.1053
18698SOL     OW57534   4.067   1.024  11.600  0.3837  0.1465 -0.1456
18698SOL    HW157535   4.144   0.969  11.615 -0.0892 -0.1490  1.3528
18698SOL    HW257536   4.063   1.081  11.676  0.8658  2.3376 -1.6755
18699SOL     OW57537   3.901   1.492   2.107 -0.6084 -0.6423  0.1315
18699SOL    HW157538   3.946   1.461   2.029 -1.1998  2.9300 -1.8594
18699SOL    HW257539   3.949   1.570   2.133 -2.2865  0.0308  1.3991
18700SOL     OW57540   5.079   2.392   9.962 -0.8135 -0.3558 -0.1506
18700SOL    HW157541   4.991   2.368   9.932  0.1027 -0.7398 -2.7697
18700SOL    HW257542   5.097   2.477   9.922 -0.4864  0.4172  1.5387
18701SOL     OW57543   6.629   2.668   4.607  0.0584  0.0392  0.4659
18701SOL    HW157544   6.665   2.736   4.663  1.6038 -1.3011  1.1749
18701SOL    HW257545   6.671   2.680   4.523 -2.3574  2.1331 -0.5828
18702SOL     OW57546   7.458   4.134   2.762  0.4101 -0.0059  0.1161
18702SOL    HW157547   7.405   4.184   2.700 -1.5337 -3.3649 -1.2206
18702SOL    HW257548   7.548   4.154   2.739 -0.1984  2.8795 -0.1744
18703SOL     OW57549   0.938   7.438   2.021  0.2640  0.2183  0.6865
18703SOL    HW157550   0.853   7.437   2.066  0.8277 -2.5675  1.9404
18703SOL    HW257551   1.002   7.453   2.091  0.9801 -1.2042  0.3737
18704SOL     OW57552   6.522   3.803   8.134  0.3690 -0.3326 -0.1960
18704SOL    HW157553   6.445   3.749   8.155 -0.0060  0.1171 -0.3884
18704SOL    HW257554   6.513   3.822   8.041 -0.2823  1.2328  0.1537
18705SOL     OW57555   1.746   0.188   7.656 -0.3247  0.2043  0.0138
18705SOL    HW157556   1.759   0.095   7.672  0.2163  0.2956  0.1292
18705SOL    HW257557   1.833   0.226   7.663 -0.2179  0.4290 -2.0347
18706SOL     OW57558   2.760   1.531  12.177  0.1579  0.0393 -0.3219
18706SOL    HW157559   2.795   1.455  12.131  2.1607  0.1133  0.9413
18706SOL    HW257560   2.726   1.495  12.259 -1.9033  0.1243 -1.0813
18707SOL     OW57561   6.285   7.370  11.453 -0.2183 -0.3828  0.3808
18707SOL    HW157562   6.332   7.357  11.371 -1.0178 -1.7718  0.1168
18707SOL    HW257563   6.322   7.305  11.513 -0.9906 -0.7202  0.5111
18708SOL     OW57564   6.055   4.524   2.981  0.1379 -0.0469  0.1461
18708SOL    HW157565   6.122   4.585   3.013 -1.2698  2.1639 -0.8947
18708SOL    HW257566   6.016   4.487   3.060  0.1048  1.4612  0.8561
18709SOL     OW57567   0.218   0.416   2.809 -0.4064  0.3517 -0.2431
18709SOL    HW157568   0.229   0.505   2.774  0.9425 -0.2897 -1.5541
18709SOL    HW257569   0.275   0.414   2.886 -0.1606  0.5155 -0.4185
18710SOL     OW57570   4.275   3.027   6.070 -0.0933  0.3059 -0.3071
18710SOL    HW157571   4.315   3.011   5.985 -0.2152 -0.7332 -0.1841
18710SOL    HW257572   4.338   2.993   6.133  0.5065  2.0723  0.1057
18711SOL     OW57573   0.018   5.592   5.712 -0.3850 -0.3150 -0.0020
18711SOL    HW157574  -0.004   5.682   5.736  0.4825 -0.2324  0.5240
18711SOL    HW257575   0.099   5.574   5.760 -0.6891 -1.4631  0.1062
18712SOL     OW57576   7.795   2.643   3.822 -0.1596 -0.5116 -0.3289
18712SOL    HW157577   7.819   2.579   3.889  0.1746 -0.9970 -0.8983
18712SOL    HW257578   7.847   2.721   3.843 -0.3756 -0.5115  0.2179
18713SOL     OW57579   5.174   2.112   2.481  0.3111  0.3464  0.2405
18713SOL    HW157580   5.191   2.021   2.506 -0.3201  0.3269  0.6145
18713SOL    HW257581   5.096   2.107   2.425  1.3128  0.4613 -1.2442
18714SOL     OW57582   7.034   7.642  11.498 -0.1540  0.1387  0.1416
18714SOL    HW157583   7.040   7.549  11.474  0.4844  0.2142 -0.0160
18714SOL    HW257584   6.961   7.646  11.558 -0.7062 -0.3405 -0.4773
18715SOL     OW57585   0.382   5.238   7.369 -0.6437 -0.4680  0.0713
18715SOL    HW157586   0.434   5.241   7.289 -0.7730 -0.3533 -0.0079
18715SOL    HW257587   0.398   5.151   7.405 -2.6713 -1.5497 -1.4492
18716SOL     OW57588   2.808   2.975   4.997  0.5268  0.1107 -0.2656
18716SOL    HW157589   2.889   3.024   4.984  0.0982  1.2898  1.2726
18716SOL    HW257590   2.776   2.959   4.908  2.0848  0.2136 -0.8747
18717SOL     OW57591   6.437   6.385   1.586 -0.1206 -0.1917  0.4188
18717SOL    HW157592   6.473   6.448   1.524 -0.4805  0.5455  0.9434
18717SOL    HW257593   6.484   6.401   1.668 -1.2171  0.4111  0.9581
18718SOL     OW57594   5.003   2.770   2.415 -0.3040 -0.4315  0.7179
18718SOL    HW157595   5.086   2.786   2.458 -1.3805  0.7172  2.4865
18718SOL    HW257596   4.982   2.853   2.371 -0.7788 -0.5292  0.7552
18719SOL     OW57597   2.086   4.389   7.004  0.4451 -0.3123 -0.4987
18719SOL    HW157598   2.122   4.403   6.917  1.9426 -1.2707 -0.0746
18719SOL    HW257599   2.104   4.470   7.052 -0.1891  0.1333 -1.0082
18720SOL     OW57600   6.759   5.067   3.547  0.2782 -0.6216 -0.4869
18720SOL    HW157601   6.727   5.149   3.587  0.3580 -0.2146 -1.2390
18720SOL    HW257602   6.852   5.084   3.531  0.0828 -0.4922 -1.5339
18721SOL     OW57603   6.997   1.161   2.736 -0.2097 -0.1368 -0.2573
18721SOL    HW157604   7.086   1.132   2.714 -0.7389 -0.7888 -1.6963
18721SOL    HW257605   6.943   1.082   2.725 -0.7580 -0.2182  2.3293
18722SOL     OW57606   1.194   0.049   7.649  0.2231 -0.6358 -0.5096
18722SOL    HW157607   1.269   0.104   7.626  1.1462 -1.3151  0.7616
18722SOL    HW257608   1.140   0.049   7.570  0.7081  1.2183 -0.8953
18723SOL     OW57609   7.685   0.002   2.182  0.1643 -0.3869  0.0399
18723SOL    HW157610   7.734  -0.030   2.106  1.1987  0.7640  0.1925
18723SOL    HW257611   7.598   0.022   2.148  1.2159  2.2179 -1.4317
18724SOL     OW57612   2.388   4.540  11.829  0.2416  0.1906 -0.0923
18724SOL    HW157613   2.456   4.595  11.791  1.2825  1.9342  3.8250
18724SOL    HW257614   2.394   4.554  11.924 -2.6359 -3.0680  0.8339
18725SOL     OW57615   6.086   1.000   6.292  0.6324 -0.5900 -0.6408
18725SOL    HW157616   6.026   0.929   6.314  0.3634  0.4593  2.5844
18725SOL    HW257617   6.153   0.997   6.361  0.1874  2.6575  0.0966
18726SOL     OW57618   5.919   5.815  11.206 -0.6661 -0.2387  0.1615
18726SOL    HW157619   5.831   5.796  11.239 -1.5037  1.9166 -0.6858
18726SOL    HW257620   5.928   5.759  11.129 -1.2907 -0.4641  0.2442
18727SOL     OW57621   4.439   4.777   6.076  0.8551  0.2692  0.6388
18727SOL    HW157622   4.397   4.863   6.070 -0.3302 -0.1969  1.7580
18727SOL    HW257623   4.532   4.794   6.059  0.4834  1.5947 -0.1958
18728SOL     OW57624   7.433   7.561   7.045  0.2150  0.6329 -0.3528
18728SOL    HW157625   7.420   7.477   7.001 -0.4257  1.2134 -1.3002
18728SOL    HW257626   7.508   7.547   7.102  1.7109  0.1175 -2.3500
18729SOL     OW57627   4.994   1.474   5.489  0.7468  0.5658 -0.4974
18729SOL    HW157628   4.929   1.423   5.440  1.8084  0.7809 -2.2144
18729SOL    HW257629   5.027   1.537   5.425  0.3881  2.5729  1.2341
18730SOL     OW57630   7.276   0.975  12.309 -0.3567 -0.5864 -0.1249
18730SOL    HW157631   7.210   1.022  12.361 -0.2224 -0.0698 -0.4133
18730SOL    HW257632   7.303   1.038  12.243 -1.1332 -1.5145 -1.3654
18731SOL     OW57633   3.097   2.586   6.311 -0.1573 -0.1655 -0.2684
18731SOL    HW157634   3.073   2.644   6.384 -0.1327  0.2341 -0.5722
18731SOL    HW257635   3.183   2.617   6.283 -0.8876  0.7944 -1.5564
18732SOL     OW57636   7.333   3.774   6.561  0.2845  0.4131 -0.3921
18732SOL    HW157637   7.347   3.716   6.486  3.1339  0.6367 -0.1308
18732SOL    HW257638   7.384   3.735   6.632 -0.5886  1.3796  0.8139
18733SOL     OW57639   6.776   4.840  11.433  0.4109 -0.2198  0.6091
18733SOL    HW157640   6.784   4.854  11.338  1.6561 -1.0678  0.5616
18733SOL    HW257641   6.722   4.912  11.463 -0.2218 -0.0724 -0.7899
18734SOL     OW57642   2.716   0.638  11.944  0.5933  0.3545 -0.3165
18734SOL    HW157643   2.766   0.601  12.017 -0.2417 -0.1927 -0.0012
18734SOL    HW257644   2.676   0.717  11.980 -3.6334 -2.2126  1.4404
18735SOL     OW57645   4.370   2.710  12.441  0.4521  0.0291 -0.2678
18735SOL    HW157646   4.413   2.760  12.371  1.0615 -0.0612  0.0324
18735SOL    HW257647   4.421   2.731  12.520  1.1130 -1.5440 -0.2381
18736SOL     OW57648   7.294   0.542   4.303  0.6286 -0.5470  0.5904
18736SOL    HW157649   7.334   0.494   4.230  1.5697 -0.9665  1.3515
18736SOL    HW257650   7.209   0.570   4.270  0.6895 -1.4517 -0.3838
18737SOL     OW57651   2.502   3.554   0.570  0.2466  0.3506  0.2390
18737SOL    HW157652   2.466   3.470   0.540 -1.8302  1.3725 -0.2878
18737SOL    HW257653   2.530   3.537   0.660  2.7458 -1.6829 -0.7855
18738SOL     OW57654   0.366   3.342   4.739  0.3260  0.3640 -0.0790
18738SOL    HW157655   0.321   3.271   4.786 -1.1488  1.0379 -0.4284
18738SOL    HW257656   0.343   3.421   4.787  0.6757  0.7905 -0.6050
18739SOL     OW57657   0.968   5.596   7.420 -0.0440  0.0409  0.0808
18739SOL    HW157658   1.005   5.645   7.493  0.5729 -0.2802 -0.0064
18739SOL    HW257659   0.909   5.533   7.461 -0.1934  0.2935  0.2531
18740SOL     OW57660   4.598   3.423   8.851  0.5687  0.0077 -0.0418
18740SOL    HW157661   4.656   3.427   8.775 -1.0209  0.9376 -1.2836
18740SOL    HW257662   4.518   3.468   8.823 -0.6303 -0.8834  1.7035
18741SOL     OW57663   0.785   4.932  12.117  0.6325 -0.2467  0.0788
18741SOL    HW157664   0.757   4.965  12.032  0.2447  0.7090  0.5583
18741SOL    HW257665   0.713   4.953  12.176  1.1690 -0.2973  0.7728
18742SOL     OW57666   0.070   3.554  12.431 -0.1619 -0.8676  0.0141
18742SOL    HW157667   0.079   3.520  12.520  2.0360  1.7541  0.9357
18742SOL    HW257668   0.146   3.519  12.384  0.4169  0.2170  0.1066
18743SOL     OW57669   7.935   4.019  12.134 -0.2218 -0.6933  0.3286
18743SOL    HW157670   7.949   4.042  12.226 -1.6095 -1.8061  0.8547
18743SOL    HW257671   8.010   4.057  12.089  0.2808  0.2429  1.8539
18744SOL     OW57672   1.968   5.579   7.072  0.0041  0.0575  0.4648
18744SOL    HW157673   2.003   5.571   6.983  1.2761 -0.3893  0.9924
18744SOL    HW257674   2.039   5.551   7.129 -0.4269  1.3836  1.6985
18745SOL     OW57675   5.228   2.287   6.583 -0.9564 -0.3099 -0.0164
18745SOL    HW157676   5.259   2.366   6.626  1.1893 -0.9025 -0.3983
18745SOL    HW257677   5.178   2.318   6.508  0.8196  0.7078 -0.8144
18746SOL     OW57678   6.721   0.856   2.500 -0.1662 -0.2144 -0.1841
18746SOL    HW157679   6.710   0.932   2.442 -1.1085 -1.4668 -1.7164
18746SOL    HW257680   6.645   0.859   2.557 -1.4470 -1.1956 -1.7370
18747SOL     OW57681   2.389   2.852   8.266  0.4166  0.0422  0.1663
18747SOL    HW157682   2.323   2.882   8.329 -0.0585 -0.0580 -0.2776
18747SOL    HW257683   2.370   2.902   8.186 -0.6999 -1.7465 -0.7426
18748SOL     OW57684   2.937   2.948  11.478 -0.6305 -0.0011 -0.0766
18748SOL    HW157685   2.903   3.025  11.523  0.4766  0.5335 -0.1305
18748SOL    HW257686   3.008   2.917  11.533 -0.3730 -0.3487 -0.5986
18749SOL     OW57687   2.989   5.496   4.783 -0.1291 -0.0638  0.3877
18749SOL    HW157688   2.974   5.429   4.716 -1.5754  0.1028  0.5055
18749SOL    HW257689   3.079   5.525   4.768  0.3313 -1.6015 -0.0445
18750SOL     OW57690   7.081   6.682  11.064 -0.7863 -0.5933  0.3123
18750SOL    HW157691   7.010   6.737  11.097 -2.2781 -1.5806 -1.1152
18750SOL    HW257692   7.054   6.593  11.086 -0.6807 -1.0882 -1.4186
18751SOL     OW57693   1.827   1.080   0.051 -1.0307 -0.8544  0.0537
18751SOL    HW157694   1.766   1.153   0.061  1.3287  1.1405  1.1133
18751SOL    HW257695   1.884   1.085   0.128  0.7662 -2.2560 -1.0823
18752SOL     OW57696   2.766   5.577   4.050  1.4252  0.2096 -0.0766
18752SOL    HW157697   2.843   5.551   4.100  1.0479  2.3546  1.7588
18752SOL    HW257698   2.692   5.565   4.110  0.6796  0.8935 -0.8218
18753SOL     OW57699   1.782   5.350   7.622  0.2685 -0.3035 -0.4218
18753SOL    HW157700   1.793   5.394   7.707  0.3896  0.5360 -0.8685
18753SOL    HW257701   1.802   5.258   7.641  0.5812 -0.0800  0.3997
18754SOL     OW57702   7.655   5.529   2.262 -0.4624  0.1452  0.5229
18754SOL    HW157703   7.692   5.493   2.342  1.3910  1.8099  0.4823
18754SOL    HW257704   7.596   5.598   2.291 -0.3040  0.2990  0.4815
18755SOL     OW57705   2.316   6.550   7.237  1.0576  0.4377 -0.3117
18755SOL    HW157706   2.286   6.599   7.161  1.2911 -1.0198 -1.3793
18755SOL    HW257707   2.240   6.496   7.262  1.1742  0.4660  0.1179
18756SOL     OW57708   4.461   6.546   5.810  0.1193 -0.0067 -0.1528
18756SOL    HW157709   4.386   6.506   5.766 -1.3508 -0.3621  2.4534
18756SOL    HW257710   4.537   6.516   5.760 -1.2333 -2.6612 -0.8095
18757SOL     OW57711   5.226   2.080   6.017 -0.4295  0.4063 -0.6187
18757SOL    HW157712   5.199   2.066   5.927 -0.3921  0.8402 -0.6995
18757SOL    HW257713   5.157   2.039   6.070 -0.9906  1.0715 -0.8287
18758SOL     OW57714   7.910   5.196   2.512 -0.4254 -0.1270 -0.0515
18758SOL    HW157715   7.961   5.226   2.437  0.3565 -2.2013 -0.4317
18758SOL    HW257716   7.973   5.196   2.585 -0.6522 -0.0159  0.1474
18759SOL     OW57717   6.294   2.381   6.313 -0.7783 -0.7703 -0.4466
18759SOL    HW157718   6.326   2.471   6.306  2.3127 -1.7406 -0.0189
18759SOL    HW257719   6.215   2.388   6.367  0.6672  1.4461  1.5663
18760SOL     OW57720   5.353   6.844   3.421 -0.9564 -0.3606  0.1688
18760SOL    HW157721   5.387   6.859   3.333  0.1975  0.1661  0.6751
18760SOL    HW257722   5.315   6.756   3.418 -0.6294 -0.4782 -0.7626
18761SOL     OW57723   6.116   1.275   2.934  0.2467  0.3834 -0.2110
18761SOL    HW157724   6.074   1.360   2.951  0.2669  0.6316 -1.2860
18761SOL    HW257725   6.102   1.261   2.840 -1.3924 -1.7217  0.2936
18762SOL     OW57726   7.946   7.780   1.633  0.4127  0.1949 -0.3655
18762SOL    HW157727   8.036   7.785   1.663  1.0329  0.2708 -2.1273
18762SOL    HW257728   7.920   7.871   1.618  0.4167  0.1107 -0.8917
18763SOL     OW57729   4.310   1.068  11.167  0.0209 -0.4430 -0.1641
18763SOL    HW157730   4.335   1.160  11.175 -2.6025  0.5259 -1.6036
18763SOL    HW257731   4.367   1.034  11.098  0.3790  0.3843 -0.2928
18764SOL     OW57732   3.751   1.619   7.711  0.1962  0.2326  0.0971
18764SOL    HW157733   3.741   1.713   7.698 -1.2991  0.0832  0.0517
18764SOL    HW257734   3.776   1.585   7.625 -2.2571  0.2279 -0.6821
18765SOL     OW57735   6.151   3.249  11.960  0.4446  0.4155 -0.0465
18765SOL    HW157736   6.194   3.175  11.918 -0.2779  1.3325 -2.5433
18765SOL    HW257737   6.175   3.241  12.053  3.2569 -0.9306 -0.7885
18766SOL     OW57738   4.666   3.501   1.112  0.4911 -0.2965  0.6943
18766SOL    HW157739   4.646   3.593   1.096 -1.1192 -0.8081 -0.4280
18766SOL    HW257740   4.628   3.482   1.198  0.6028  0.0119  0.8125
18767SOL     OW57741   3.560   6.047   0.078 -0.2219 -0.1105 -0.0498
18767SOL    HW157742   3.502   5.989   0.029 -2.6073  1.9587  0.1390
18767SOL    HW257743   3.529   6.041   0.169 -0.4174  1.2631  0.0001
18768SOL     OW57744   6.781   5.311   8.547 -0.6422  0.6594 -0.1849
18768SOL    HW157745   6.798   5.224   8.512 -1.5150  0.6974 -0.7372
18768SOL    HW257746   6.695   5.304   8.589 -0.1999  0.9622  0.7875
18769SOL     OW57747   0.304   0.666   7.536 -0.6296 -0.8425 -0.4684
18769SOL    HW157748   0.364   0.701   7.470  1.1683 -1.8991  0.5105
18769SOL    HW257749   0.290   0.739   7.596 -1.2440 -0.2577 -1.3017
18770SOL     OW57750   4.976   2.554   7.951  0.0617  0.7529  0.1040
18770SOL    HW157751   5.070   2.555   7.966  0.1534  0.2871 -0.4189
18770SOL    HW257752   4.966   2.551   7.856 -0.4741  0.2857  0.1673
18771SOL     OW57753   6.260   5.501   9.521 -0.5024  0.1507  0.1709
18771SOL    HW157754   6.202   5.521   9.595 -1.9683  0.5522 -1.0210
18771SOL    HW257755   6.200   5.482   9.449  0.8817 -1.5867 -0.5906
18772SOL     OW57756   4.882   5.888   3.932  0.3491  0.0875 -0.4436
18772SOL    HW157757   4.796   5.863   3.898  0.1911  0.2860 -0.1989
18772SOL    HW257758   4.922   5.938   3.861 -0.1060  0.7690 -0.2288
18773SOL     OW57759   5.748   4.654   3.655 -0.2537 -0.2983  0.0342
18773SOL    HW157760   5.705   4.646   3.741 -0.0579  0.0893  0.1694
18773SOL    HW257761   5.832   4.610   3.666 -0.5488 -0.9354 -0.1903
18774SOL     OW57762   0.637   1.402   5.419 -0.2960 -0.7310  0.0998
18774SOL    HW157763   0.644   1.469   5.487 -1.2346 -0.1613 -0.3360
18774SOL    HW257764   0.636   1.451   5.336 -0.1484 -1.3446 -0.2771
18775SOL     OW57765   0.452   3.789   4.858 -0.2191 -0.1747 -0.2312
18775SOL    HW157766   0.359   3.794   4.881 -0.3131 -0.7241 -0.4885
18775SOL    HW257767   0.478   3.881   4.845 -0.2699  0.1252  1.5754
18776SOL     OW57768   6.176   5.282   4.179 -0.0833 -0.0879 -0.4905
18776SOL    HW157769   6.123   5.250   4.106 -0.4259 -0.8157  0.0712
18776SOL    HW257770   6.207   5.203   4.223 -0.5455  0.3449  0.6291
18777SOL     OW57771   6.458   3.315   3.261 -0.1499  0.0326  0.0362
18777SOL    HW157772   6.488   3.405   3.248 -1.1545  0.5779  1.2084
18777SOL    HW257773   6.372   3.325   3.303  0.1160 -1.4656  1.0036
18778SOL     OW57774   4.859   6.033  12.244 -0.2706 -0.1236 -0.7342
18778SOL    HW157775   4.797   5.989  12.186 -0.3874  1.7884 -2.1822
18778SOL    HW257776   4.895   6.104  12.190  1.4152  0.2746  0.8254
18779SOL     OW57777   1.064   4.493  10.885 -0.2002  0.3267 -0.5157
18779SOL    HW157778   1.148   4.465  10.921 -0.8433 -0.5817  0.3675
18779SOL    HW257779   1.073   4.483  10.790  0.4817 -0.3757 -0.3834
18780SOL     OW57780   2.767   4.310   1.134 -0.5808 -0.3332 -0.3252
18780SOL    HW157781   2.674   4.294   1.119 -0.2738 -1.3158 -1.2689
18780SOL    HW257782   2.798   4.232   1.181 -0.2672  0.0516  0.1124
18781SOL     OW57783   6.405   2.956   9.291 -0.2176 -0.5927 -0.3842
18781SOL    HW157784   6.426   2.888   9.355  0.6123  1.1447  1.3202
18781SOL    HW257785   6.312   2.975   9.305 -0.8458 -2.3021 -1.8814
18782SOL     OW57786   2.122   5.015   0.770  0.5058 -0.4878 -0.0308
18782SOL    HW157787   2.047   5.067   0.799  0.5682 -1.0058  1.1419
18782SOL    HW257788   2.107   4.928   0.809  1.4672 -0.7286 -0.1798
18783SOL     OW57789   2.319   0.613   2.238 -0.3995  0.4024  0.4636
18783SOL    HW157790   2.274   0.573   2.163  0.4307  0.1727  0.0812
18783SOL    HW257791   2.375   0.680   2.199 -0.0414  0.3533  0.8941
18784SOL     OW57792   5.726   3.589   6.532  0.6405  0.0617 -0.2647
18784SOL    HW157793   5.821   3.593   6.536  0.5511  1.3904  1.7985
18784SOL    HW257794   5.700   3.674   6.495  0.2384  0.0090 -0.1074
18785SOL     OW57795   0.016   0.690   1.808 -0.6420 -0.0448 -0.3909
18785SOL    HW157796   0.111   0.680   1.804 -0.5197  1.1454 -0.8873
18785SOL    HW257797   0.002   0.769   1.860 -1.3890 -0.5382  0.1799
18786SOL     OW57798   7.120   3.188  11.007  0.0330  0.5432  0.0287
18786SOL    HW157799   7.097   3.176  10.914 -0.8049  1.7176  0.0524
18786SOL    HW257800   7.215   3.180  11.009 -0.1109 -2.2163 -0.4680
18787SOL     OW57801   3.667   7.689   4.099  0.1382  0.5128 -0.0527
18787SOL    HW157802   3.760   7.708   4.111  0.9263 -2.1340 -1.3205
18787SOL    HW257803   3.627   7.775   4.087  2.5526  1.6858 -0.3322
18788SOL     OW57804   2.263   2.310   4.118 -0.0581  0.2224  0.0192
18788SOL    HW157805   2.328   2.369   4.154 -0.1873  0.6143 -0.3789
18788SOL    HW257806   2.214   2.277   4.194 -1.6382  2.5440  0.1171
18789SOL     OW57807   5.181   7.215   2.446 -0.5023 -0.5471 -0.4095
18789SOL    HW157808   5.224   7.157   2.509  0.1136  0.2489 -0.0753
18789SOL    HW257809   5.098   7.237   2.488  0.1803  0.4949  0.4506
18790SOL     OW57810   7.922   7.794  11.086 -0.3944 -0.3852  0.0452
18790SOL    HW157811   7.945   7.732  11.017 -1.0571 -1.4347  0.7366
18790SOL    HW257812   8.002   7.845  11.100 -0.3731  0.1318 -1.7595
18791SOL     OW57813   6.524   0.517   5.103 -0.2330 -0.6226 -0.0601
18791SOL    HW157814   6.595   0.577   5.079  0.1633 -1.0195  0.0982
18791SOL    HW257815   6.469   0.512   5.025 -0.8826  0.7795  0.2676
18792SOL     OW57816   1.240   2.342   7.192 -0.1729 -0.7215  0.5898
18792SOL    HW157817   1.234   2.380   7.280 -1.7342 -0.2296  0.3099
18792SOL    HW257818   1.269   2.252   7.207  1.2535 -0.1551  1.4487
18793SOL     OW57819   2.674   5.147   7.188 -0.2607 -0.5270  0.3163
18793SOL    HW157820   2.643   5.143   7.098  2.2313  0.6795 -0.7052
18793SOL    HW257821   2.762   5.110   7.185  0.2663  0.4442  2.0409
18794SOL     OW57822   4.891   7.759   4.644 -0.7023  0.0613  0.0828
18794SOL    HW157823   4.945   7.787   4.570 -0.4021  0.3108  0.3921
18794SOL    HW257824   4.817   7.820   4.644 -0.4030  0.4280  0.3377
18795SOL     OW57825   7.598   7.681   6.526 -0.0412 -0.3922 -0.4834
18795SOL    HW157826   7.531   7.628   6.568 -0.8337  1.0889  0.2040
18795SOL    HW257827   7.559   7.768   6.520  0.6767 -0.1825 -2.8509
18796SOL     OW57828   2.322   7.315  11.546  0.0437 -0.6547  0.0890
18796SOL    HW157829   2.343   7.227  11.514 -0.4002 -1.0551  0.8558
18796SOL    HW257830   2.346   7.373  11.474 -0.4158 -1.4751 -0.7495
18797SOL     OW57831   6.985   4.679   9.047 -0.2026  0.0015  0.0782
18797SOL    HW157832   6.894   4.656   9.027 -0.8461  1.0161  1.6344
18797SOL    HW257833   6.989   4.679   9.143  1.3197  0.4825  0.0422
18798SOL     OW57834   3.072   0.132   7.871 -0.0895 -0.6259 -0.2938
18798SOL    HW157835   3.109   0.117   7.958 -1.2190 -1.2161  0.1075
18798SOL    HW257836   3.144   0.171   7.820  1.0700 -1.7488  0.4347
18799SOL     OW57837   6.633   3.496   1.699  0.2559 -0.3474 -0.2526
18799SOL    HW157838   6.673   3.564   1.645 -0.1083  0.2508  0.2098
18799SOL    HW257839   6.683   3.417   1.680  1.0087  0.1603 -0.4318
18800SOL     OW57840   1.036   4.996   7.828 -0.5910 -0.3253 -0.3141
18800SOL    HW157841   1.026   5.082   7.870 -0.7759 -0.9417  0.9351
18800SOL    HW257842   1.024   4.933   7.898 -3.4496 -1.5038 -1.6741
18801SOL     OW57843   0.267   7.223  11.668 -0.1220  0.3724  0.3471
18801SOL    HW157844   0.266   7.316  11.645 -0.7944  0.2568 -0.1100
18801SOL    HW257845   0.175   7.201  11.680  0.0065 -0.3542 -0.0082
18802SOL     OW57846   2.040   2.921  11.207 -0.2378  0.0121 -0.1813
18802SOL    HW157847   2.035   2.929  11.302  1.0031 -1.0602  0.0077
18802SOL    HW257848   2.132   2.941  11.186 -0.3078 -0.5224 -1.0471
18803SOL     OW57849   0.018   2.569   4.174 -0.2706  0.3975 -0.0399
18803SOL    HW157850   0.051   2.605   4.092  1.5286  0.7690  0.8063
18803SOL    HW257851  -0.003   2.645   4.227 -0.8457  0.1610  0.0765
18804SOL     OW57852   6.766   2.866   5.141 -0.4957  0.5453  0.2702
18804SOL    HW157853   6.787   2.880   5.234  1.7381  0.7040 -0.2083
18804SOL    HW257854   6.708   2.791   5.141  2.1720 -1.7136  1.6576
18805SOL     OW57855   1.880   5.758   2.674 -0.4025 -0.4103 -0.3057
18805SOL    HW157856   1.881   5.761   2.769  0.6562  2.0046 -0.3131
18805SOL    HW257857   1.968   5.784   2.648 -0.3886 -1.9209 -1.9746
18806SOL     OW57858   0.515   0.315  11.151  0.2735 -0.3514  0.0495
18806SOL    HW157859   0.428   0.337  11.185 -0.0838  0.8378 -1.5127
18806SOL    HW257860   0.498   0.250  11.084  0.6954 -0.7528  0.3283
18807SOL     OW57861   2.182   0.351   9.709 -0.0785  0.1377 -0.5254
18807SOL    HW157862   2.272   0.318   9.698  0.3313  1.2108 -0.5730
18807SOL    HW257863   2.167   0.406   9.632 -0.4546  0.6415 -0.1058
18808SOL     OW57864   6.640   3.197   7.493 -0.0485 -0.6417 -0.4352
18808SOL    HW157865   6.730   3.184   7.462  0.2495 -0.2898  0.2436
18808SOL    HW257866   6.585   3.182   7.416  0.5861 -0.9230 -0.8450
18809SOL     OW57867   4.153   7.858  10.754 -0.4341  0.1495 -0.0135
18809SOL    HW157868   4.227   7.846  10.813 -0.4975  2.2865  0.5808
18809SOL    HW257869   4.193   7.872  10.668 -0.3166 -2.1456 -0.3830
18810SOL     OW57870   0.902   2.871   2.868  0.0283 -0.5194  0.7005
18810SOL    HW157871   0.919   2.793   2.921 -1.5554 -1.2165  0.2690
18810SOL    HW257872   0.921   2.842   2.778  1.0277  0.1166  0.6972
18811SOL     OW57873   1.627   2.020  10.313  0.1048  0.6329 -0.2106
18811SOL    HW157874   1.582   1.948  10.357  1.9428 -2.4747 -2.9488
18811SOL    HW257875   1.712   2.025  10.356 -0.4988  2.2301  0.8789
18812SOL     OW57876   3.955   2.004   1.112  0.2874 -0.1481  0.3853
18812SOL    HW157877   4.050   2.002   1.119  0.3040  1.4484  1.3202
18812SOL    HW257878   3.925   1.923   1.154  1.2377 -0.9348 -0.4345
18813SOL     OW57879   2.125   0.372   5.829  0.8236  0.2211  0.1357
18813SOL    HW157880   2.175   0.390   5.909 -0.5506  0.8531  0.8938
18813SOL    HW257881   2.113   0.458   5.789  0.0482  0.1306  0.1585
18814SOL     OW57882   2.597   6.057   0.660  0.6814  0.7711  0.2083
18814SOL    HW157883   2.646   6.014   0.589  0.2962 -0.5181  0.6925
18814SOL    HW257884   2.509   6.071   0.624  0.5127  0.2014  0.3862
18815SOL     OW57885   2.218   3.036   0.963 -0.4229  0.8112  0.7324
18815SOL    HW157886   2.290   2.980   0.993 -1.5512 -1.1226  0.0014
18815SOL    HW257887   2.242   3.124   0.995  2.6293  0.4316 -0.1495
18816SOL     OW57888   0.352   0.997   8.582  0.4666 -0.1167 -0.2819
18816SOL    HW157889   0.424   1.057   8.602 -0.5269  1.5948 -1.6160
18816SOL    HW257890   0.291   1.007   8.655  1.4978 -1.5852  0.8629
18817SOL     OW57891   2.000   6.212   5.969  0.5303 -0.0213 -0.0204
18817SOL    HW157892   2.067   6.143   5.968  0.4685 -0.0980  0.6514
18817SOL    HW257893   1.920   6.168   5.938  0.9477  0.2631 -1.6099
18818SOL     OW57894   3.964   0.461  10.963  0.1081  0.1120  0.5982
18818SOL    HW157895   3.990   0.481  10.873  0.1803  0.7153  0.7506
18818SOL    HW257896   3.873   0.432  10.956 -0.4633  1.8283  0.5169
18819SOL     OW57897   5.515   4.529  10.395  0.0011  0.1847 -0.1866
18819SOL    HW157898   5.433   4.493  10.361 -1.8224  1.8846  2.0803
18819SOL    HW257899   5.536   4.473  10.470 -0.0496  0.7731  0.2718
18820SOL     OW57900   7.117   5.567   7.444 -0.1711  0.3022 -0.4207
18820SOL    HW157901   7.074   5.631   7.389  0.8077  1.0128 -0.3905
18820SOL    HW257902   7.046   5.512   7.478 -0.7436 -1.0026 -3.3637
18821SOL     OW57903   5.547   6.501   9.526 -0.0604  0.1390  0.9383
18821SOL    HW157904   5.548   6.488   9.621 -0.1703  2.7017  1.3836
18821SOL    HW257905   5.584   6.589   9.514 -1.0762  0.3325 -1.3067
18822SOL     OW57906   6.677   0.981   4.232 -0.2165  0.3733  0.4295
18822SOL    HW157907   6.662   1.021   4.147 -1.8623  0.2852  0.6390
18822SOL    HW257908   6.765   0.945   4.227 -0.7260 -0.7466 -1.7113
18823SOL     OW57909   2.988   6.920   1.710 -0.0213 -0.3128 -0.2953
18823SOL    HW157910   3.083   6.930   1.703  0.3708 -0.7747  2.7098
18823SOL    HW257911   2.952   7.001   1.675  1.5653  0.4842 -0.1671
18824SOL     OW57912   7.835   3.889  10.789  0.1372  0.5213  0.2722
18824SOL    HW157913   7.897   3.825  10.753 -1.3145  0.4014 -2.3030
18824SOL    HW257914   7.800   3.847  10.868  0.1776 -1.3494 -0.6385
18825SOL     OW57915   3.418   7.297   8.957 -0.5967  0.1440  0.8117
18825SOL    HW157916   3.392   7.272   8.868 -0.3465  0.0659  0.7578
18825SOL    HW257917   3.506   7.261   8.967 -0.3532  0.7348  0.8491
18826SOL     OW57918   5.481   7.296   5.171 -0.1269  0.6205 -0.3116
18826SOL    HW157919   5.391   7.271   5.146 -0.0257 -1.4908  1.1669
18826SOL    HW257920   5.473   7.386   5.202 -1.9948  0.0982  0.8910
18827SOL     OW57921   5.244   4.274   3.421 -0.4913 -0.3575  0.4254
18827SOL    HW157922   5.210   4.364   3.418 -1.6233 -0.7792 -0.1554
18827SOL    HW257923   5.325   4.277   3.371  0.0207  0.5483  1.2754
18828SOL     OW57924   5.163   3.110   0.964 -0.2737 -0.1673  0.7732
18828SOL    HW157925   5.151   3.123   0.870 -0.9361 -1.6400  0.6298
18828SOL    HW257926   5.205   3.024   0.971 -0.5451 -0.2179  1.8318
18829SOL     OW57927   6.775   2.438  11.522 -0.2180  0.3572 -0.1495
18829SOL    HW157928   6.813   2.525  11.535  1.0723 -0.1973  0.0151
18829SOL    HW257929   6.851   2.382  11.508 -1.0555 -0.6813 -0.6340
18830SOL     OW57930   3.720   7.051   7.679 -0.8323 -0.0354 -0.2033
18830SOL    HW157931   3.762   7.049   7.593  0.8298 -2.0698  0.5792
18830SOL    HW257932   3.775   7.109   7.731 -1.1260  0.2079 -0.1604
18831SOL     OW57933   7.927   0.486   0.737  0.0804  0.2951  0.3082
18831SOL    HW157934   7.885   0.545   0.675 -1.4829 -0.0344  1.0104
18831SOL    HW257935   7.925   0.532   0.821 -0.4453 -0.4268  0.7014
18832SOL     OW57936   6.646   6.742   6.900 -0.6051  0.4022  0.0914
18832SOL    HW157937   6.665   6.819   6.953 -0.5672  1.1986 -1.0445
18832SOL    HW257938   6.724   6.729   6.847 -0.0364 -1.3058  1.2771
18833SOL     OW57939   3.999   7.223   2.927 -0.0753 -0.2199  0.2092
18833SOL    HW157940   3.923   7.190   2.879  0.8655  0.7368 -2.1033
18833SOL    HW257941   3.996   7.318   2.916  2.7264 -0.2496 -2.2423
18834SOL     OW57942   7.117   1.425   2.588 -0.4110 -0.3255 -0.0143
18834SOL    HW157943   7.125   1.332   2.610 -0.9152 -0.3142  0.2443
18834SOL    HW257944   7.162   1.471   2.658  0.5712 -0.3978 -0.5763
18835SOL     OW57945   4.518   1.838   2.189 -0.1297 -0.1487  0.0670
18835SOL    HW157946   4.425   1.829   2.210 -0.4457  0.0213 -1.1428
18835SOL    HW257947   4.533   1.932   2.185 -0.0975 -0.1697 -0.4533
18836SOL     OW57948   4.041   7.666  11.585  0.5004 -0.0432 -0.3273
18836SOL    HW157949   4.091   7.745  11.561  1.6585 -0.4644  0.6165
18836SOL    HW257950   4.056   7.656  11.679  0.8580 -1.7125 -0.5292
18837SOL     OW57951   4.789   5.040   3.417  0.2851  0.4230 -0.2726
18837SOL    HW157952   4.744   5.062   3.335  0.3422  1.5613 -0.0196
18837SOL    HW257953   4.729   4.983   3.464 -0.7946  1.6980 -0.0574
18838SOL     OW57954   2.362   0.501   7.990  0.0199 -0.6084  0.3994
18838SOL    HW157955   2.394   0.415   8.019  2.1998 -0.3712 -1.0158
18838SOL    HW257956   2.402   0.563   8.050 -1.0487 -0.5074  1.0326
18839SOL     OW57957   6.933   5.614   5.275  0.3136  0.0875 -0.1532
18839SOL    HW157958   7.003   5.655   5.326  0.8758 -0.4607 -0.4613
18839SOL    HW257959   6.897   5.547   5.334 -0.7620  1.1533  0.4347
18840SOL     OW57960   2.107   0.300   8.858  0.0669  0.2431  0.1311
18840SOL    HW157961   2.036   0.242   8.832 -0.9984  1.0350  1.1547
18840SOL    HW257962   2.098   0.377   8.802 -0.8976  1.0258  1.3206
18841SOL     OW57963   6.626   4.153   5.812  0.1348  0.5167 -0.1325
18841SOL    HW157964   6.662   4.120   5.729 -0.2914  0.5787 -0.3463
18841SOL    HW257965   6.678   4.231   5.832  1.2927 -0.3722  0.4821
18842SOL     OW57966   0.601   6.704   3.220 -0.3545  0.2435  0.0110
18842SOL    HW157967   0.596   6.612   3.245  1.1773 -0.7895 -2.9596
18842SOL    HW257968   0.510   6.733   3.217 -0.9031 -1.3366  0.5167
18843SOL     OW57969   5.171   0.201   8.969  0.0206 -0.1142  0.7517
18843SOL    HW157970   5.160   0.123   9.023 -1.0161  0.1109  0.8872
18843SOL    HW257971   5.186   0.167   8.881  0.1753 -0.4691  0.9125
18844SOL     OW57972   1.210   1.274   1.532  0.4118  0.0150  0.2750
18844SOL    HW157973   1.173   1.339   1.473 -0.5780 -0.1193  0.7325
18844SOL    HW257974   1.288   1.242   1.487  0.4924  0.9713 -0.2872
18845SOL     OW57975   6.797   1.841   2.089  0.0288 -0.0371 -0.1012
18845SOL    HW157976   6.757   1.754   2.086 -2.2455  0.9330 -0.1423
18845SOL    HW257977   6.782   1.872   2.178 -0.2662  0.7465 -0.4067
18846SOL     OW57978   6.527   3.568   3.166  0.0647  0.3925  0.2840
18846SOL    HW157979   6.523   3.515   3.087 -0.0474  1.2315 -0.2967
18846SOL    HW257980   6.530   3.658   3.133  0.1752  0.7456  1.2360
18847SOL     OW57981   7.263   6.080   8.996 -0.5439 -0.0701 -0.3854
18847SOL    HW157982   7.255   6.084   9.091 -0.1737 -0.7521 -0.3191
18847SOL    HW257983   7.356   6.095   8.979 -0.5249 -0.4075 -0.6032
18848SOL     OW57984   3.618   1.164   0.378  0.4432 -0.1457 -0.0324
18848SOL    HW157985   3.564   1.238   0.349  0.9087  0.8698  1.5491
18848SOL    HW257986   3.568   1.125   0.450  0.8807 -0.4421  0.1142
18849SOL     OW57987   7.966   3.437  11.918 -0.3072  0.2129 -0.5554
18849SOL    HW157988   8.054   3.406  11.939 -0.0912  1.1565 -0.0449
18849SOL    HW257989   7.980   3.506  11.854 -0.6479  0.6275 -0.1862
18850SOL     OW57990   3.902   7.804   0.452 -0.3071  0.0273 -0.5604
18850SOL    HW157991   3.970   7.862   0.486 -0.1324 -0.3049 -0.3359
18850SOL    HW257992   3.824   7.859   0.443 -0.1364  0.2964 -0.3650
18851SOL     OW57993   2.958   4.397   1.585  0.3881 -0.3387 -0.0533
18851SOL    HW157994   3.026   4.464   1.573 -0.4363  0.8374  1.5199
18851SOL    HW257995   2.965   4.373   1.677  0.6398 -2.4466 -0.5796
18852SOL     OW57996   1.064   0.778   9.607 -0.3082  0.3075 -0.1921
18852SOL    HW157997   1.126   0.850   9.596 -0.1378  0.4114  1.2459
18852SOL    HW257998   1.016   0.800   9.687 -1.0799 -0.5918 -0.3885
18853SOL     OW57999   7.685   4.407   0.110  0.1383  0.9803  0.2378
18853SOL    HW158000   7.689   4.465   0.034 -0.0989  0.6129 -0.0594
18853SOL    HW258001   7.775   4.400   0.140  0.2224  1.1850  0.0362
18854SOL     OW58002   6.509   2.516   6.061 -0.2854  0.4768  0.0337
18854SOL    HW158003   6.581   2.478   6.011 -0.5860 -0.4717  0.3072
18854SOL    HW258004   6.540   2.604   6.084  0.5033  0.3321 -0.4268
18855SOL     OW58005   6.782   5.529   0.712  0.4079  0.2919  0.8515
18855SOL    HW158006   6.824   5.447   0.683 -2.7562 -0.5281 -1.9488
18855SOL    HW258007   6.776   5.582   0.633 -1.9543  1.1538  1.5424
18856SOL     OW58008   5.880   3.698   8.286 -0.6651  0.7876 -0.0605
18856SOL    HW158009   5.945   3.699   8.216 -0.7477  2.2664 -0.1544
18856SOL    HW258010   5.805   3.746   8.249 -0.8416  1.2849  0.9143
18857SOL     OW58011   0.064   7.011  10.496  0.1414  0.2407 -0.0058
18857SOL    HW158012  -0.006   7.075  10.511 -0.1994 -0.1118 -0.0773
18857SOL    HW258013   0.065   6.957  10.575  0.1613  0.0867 -0.1102
18858SOL     OW58014   6.084   3.743  10.166 -0.9242 -0.4409 -0.0553
18858SOL    HW158015   5.995   3.779  10.173 -1.2796 -1.4128  0.7538
18858SOL    HW258016   6.070   3.648  10.165  0.1416 -0.6165  0.6850
18859SOL     OW58017   3.840   5.648   9.014  0.1320  0.3217  0.2064
18859SOL    HW158018   3.804   5.561   9.001  0.3825  0.3644 -0.9320
18859SOL    HW258019   3.929   5.633   9.046 -0.9071  0.2189  3.4165
18860SOL     OW58020   1.074   5.413   2.711  0.3732 -0.1023 -0.0751
18860SOL    HW158021   0.979   5.423   2.709  0.4266  0.3776 -0.3364
18860SOL    HW258022   1.088   5.328   2.752 -0.2155 -0.8883 -1.4493
18861SOL     OW58023   3.273   0.540   8.057 -0.0680 -0.8381  0.1174
18861SOL    HW158024   3.269   0.509   7.966 -2.5028 -0.3887  0.0010
18861SOL    HW258025   3.210   0.485   8.103 -0.2955  0.2358  1.1100
18862SOL     OW58026   7.685   0.693   5.310 -0.3248 -0.0659 -0.3528
18862SOL    HW158027   7.661   0.739   5.229 -0.9749 -0.6327 -0.4945
18862SOL    HW258028   7.730   0.614   5.280  0.8135  0.4703 -0.1119
18863SOL     OW58029   1.230   5.437   0.752 -0.1482 -0.2019  0.1888
18863SOL    HW158030   1.150   5.454   0.702 -0.8811 -1.5983  0.8373
18863SOL    HW258031   1.230   5.342   0.766  2.0505 -0.3582 -0.4926
18864SOL     OW58032   1.367   0.678   7.872 -0.1799  0.1215  0.1641
18864SOL    HW158033   1.338   0.667   7.781  0.0555 -0.8769  0.2073
18864SOL    HW258034   1.296   0.727   7.914 -0.0091  1.1485 -0.7032
18865SOL     OW58035   3.203   6.369   9.088 -0.1202  0.0693  0.3605
18865SOL    HW158036   3.181   6.354   8.997  0.4361  0.8464  0.0817
18865SOL    HW258037   3.121   6.397   9.129 -0.1876  0.5357 -0.0936
18866SOL     OW58038   6.403   6.285   4.302  0.3108  0.4795  0.8821
18866SOL    HW158039   6.436   6.196   4.288  0.6251  0.4730  1.5973
18866SOL    HW258040   6.313   6.273   4.331 -0.7018  0.5258 -1.9081
18867SOL     OW58041   7.118   2.223   9.636 -0.1077 -0.3085 -0.2198
18867SOL    HW158042   7.091   2.300   9.685  0.4240  0.3379 -0.9207
18867SOL    HW258043   7.038   2.194   9.592 -0.2229  0.1006 -0.2870
18868SOL     OW58044   7.208   3.466   6.342 -0.0912  0.2385  0.1335
18868SOL    HW158045   7.290   3.513   6.353 -0.1188  0.1576  0.6988
18868SOL    HW258046   7.220   3.416   6.261 -0.1102  1.3032 -0.5444
18869SOL     OW58047   0.109   7.358  11.345 -0.2307  0.2484  0.0911
18869SOL    HW158048   0.033   7.304  11.367 -0.8132  1.6376  1.6785
18869SOL    HW258049   0.072   7.434  11.299  0.5455 -0.4897 -1.8590
18870SOL     OW58050   6.525   7.181   1.603  0.4970  0.0766 -0.5547
18870SOL    HW158051   6.544   7.088   1.591 -1.2594 -0.0878 -2.5598
18870SOL    HW258052   6.602   7.226   1.568  0.7248 -0.5972 -0.9411
18871SOL     OW58053   1.080   3.774   3.286  0.8647 -0.5717  0.2286
18871SOL    HW158054   1.008   3.726   3.246  0.0421  1.1795 -0.5026
18871SOL    HW258055   1.139   3.793   3.212  0.9180 -0.0314  0.4074
18872SOL     OW58056   1.646   0.767   8.043  0.0401  0.2505 -0.3853
18872SOL    HW158057   1.728   0.767   8.092 -1.3739  1.9361  2.2417
18872SOL    HW258058   1.661   0.825   7.969  0.7230  2.0803  1.1205
18873SOL     OW58059   5.524   6.126  10.399 -0.0621  0.5075 -0.4920
18873SOL    HW158060   5.497   6.104  10.310 -1.3256 -3.8556  0.7394
18873SOL    HW258061   5.604   6.075  10.412  0.7990  2.0503  0.5793
18874SOL     OW58062   5.779   2.990   2.122  0.1101 -0.7996  0.1966
18874SOL    HW158063   5.686   3.011   2.137 -0.2410 -1.5565 -0.8203
18874SOL    HW258064   5.777   2.914   2.064  1.3833 -0.4549 -0.3236
18875SOL     OW58065   0.614   2.991   2.780 -0.6062  0.4455 -0.3164
18875SOL    HW158066   0.650   2.903   2.767  0.0770  0.5505  0.7239
18875SOL    HW258067   0.537   2.977   2.835 -0.0864  0.5468  0.4572
18876SOL     OW58068   1.559   1.990   4.038  0.4055 -0.1441 -0.1803
18876SOL    HW158069   1.567   2.067   3.981 -0.6112 -0.2233 -0.4498
18876SOL    HW258070   1.622   2.006   4.108  1.0057  0.4015 -0.8216
18877SOL     OW58071   5.143   0.093   8.524  0.7477  0.4555  0.2671
18877SOL    HW158072   5.062   0.134   8.556 -0.3058 -0.7275 -0.7816
18877SOL    HW258073   5.115   0.008   8.489  2.2651  0.5142 -1.2204
18878SOL     OW58074   6.149   0.576   2.159  0.3325  0.5100 -0.5972
18878SOL    HW158075   6.182   0.662   2.132 -1.5144  1.1114 -1.0892
18878SOL    HW258076   6.142   0.526   2.078 -1.2682  0.8940 -0.7303
18879SOL     OW58077   5.633   7.233   9.292  0.1719  0.3618  0.1191
18879SOL    HW158078   5.664   7.275   9.211 -0.6446  0.0403 -0.3773
18879SOL    HW258079   5.541   7.213   9.274  0.8335 -2.8852 -0.1982
18880SOL     OW58080   2.161   0.087   9.061 -0.0453 -0.5206  0.1900
18880SOL    HW158081   2.254   0.088   9.083 -0.3415  0.2984  1.4405
18880SOL    HW258082   2.150   0.159   8.999  0.2959 -1.2107 -0.7177
18881SOL     OW58083   6.592   0.597   9.132  0.0996 -0.8751 -0.3698
18881SOL    HW158084   6.676   0.629   9.166  0.7841 -3.6185  0.8188
18881SOL    HW258085   6.529   0.615   9.202 -0.0963  0.1368 -0.7859
18882SOL     OW58086   0.344   3.137   5.719  0.1423  0.1419 -0.6813
18882SOL    HW158087   0.358   3.209   5.781 -0.4723 -0.3968  0.1050
18882SOL    HW258088   0.378   3.060   5.764  1.0286 -0.0365 -1.6222
18883SOL     OW58089   2.963   5.458   8.962 -0.1975  1.2226  0.5016
18883SOL    HW158090   3.037   5.490   8.911  0.5349 -0.9150  0.1044
18883SOL    HW258091   2.887   5.475   8.907  0.5470 -0.7699 -1.2992
18884SOL     OW58092   6.553   7.768   4.755 -0.4108 -0.1036  0.1400
18884SOL    HW158093   6.593   7.820   4.685 -1.0982  0.6846  0.3109
18884SOL    HW258094   6.562   7.677   4.726 -2.3884  0.2745 -1.9521
18885SOL     OW58095   4.614   4.358   7.284 -1.0251  1.1452  0.4200
18885SOL    HW158096   4.595   4.298   7.356  1.4861 -0.5566 -0.2042
18885SOL    HW258097   4.542   4.346   7.223 -0.3732 -1.7765  0.0591
18886SOL     OW58098   6.041   3.652  11.256  0.1762  0.3705  0.2588
18886SOL    HW158099   6.133   3.652  11.229  0.3171  0.1747  0.7378
18886SOL    HW258100   6.027   3.739  11.293 -0.0734  0.7147 -0.6132
18887SOL     OW58101   6.770   1.627  11.559  0.0075 -0.3842  0.4752
18887SOL    HW158102   6.772   1.722  11.566  1.1431 -0.4015  0.6519
18887SOL    HW258103   6.734   1.597  11.642 -2.5101 -0.0631 -0.4296
18888SOL     OW58104   1.451   7.224   5.005 -0.3275  0.1226  0.2959
18888SOL    HW158105   1.540   7.257   4.991 -1.2250  1.8591 -2.1758
18888SOL    HW258106   1.439   7.157   4.938 -0.4262 -1.2028  1.5962
18889SOL     OW58107   0.591   2.814  11.181  0.3539  0.3555  0.5669
18889SOL    HW158108   0.630   2.805  11.094 -0.8086 -0.5234  0.1140
18889SOL    HW258109   0.553   2.728  11.199  0.2084  0.6642  1.7619
18890SOL     OW58110   2.791   1.598   4.219 -0.1703  0.1793  0.5125
18890SOL    HW158111   2.730   1.527   4.203 -0.1208  0.3594 -0.5472
18890SOL    HW258112   2.858   1.561   4.277  0.3177 -0.8871 -0.7015
18891SOL     OW58113   4.679   1.067  11.412  0.2769  0.1522 -0.3700
18891SOL    HW158114   4.634   0.991  11.377 -0.3684 -0.2067  1.1545
18891SOL    HW258115   4.708   1.040  11.499 -0.2437  1.7406  0.3379
18892SOL     OW58116   4.359   7.778  10.950 -0.0103 -0.1920  0.4663
18892SOL    HW158117   4.400   7.694  10.931 -1.4963 -1.1502  1.2580
18892SOL    HW258118   4.326   7.769  11.040 -0.7931  0.9664  0.3188
18893SOL     OW58119   6.717   2.340   8.566  0.2512  0.2373 -0.5011
18893SOL    HW158120   6.759   2.301   8.489 -0.2698 -1.7257  0.1274
18893SOL    HW258121   6.629   2.362   8.536  0.6574  1.2662 -0.9556
18894SOL     OW58122   1.289   4.095   2.140 -0.1452  0.1245 -0.4519
18894SOL    HW158123   1.269   4.051   2.223 -0.1644  1.2817  0.1874
18894SOL    HW258124   1.383   4.109   2.143 -0.1526  0.2081 -0.6131
18895SOL     OW58125   7.410   0.550  10.696  0.5738 -0.6789  0.6440
18895SOL    HW158126   7.439   0.641  10.697  0.0937 -0.3818 -2.3525
18895SOL    HW258127   7.325   0.551  10.741 -0.6602  0.9275 -1.5211
18896SOL     OW58128   1.077   4.230  10.493  0.1737  1.0920  0.1165
18896SOL    HW158129   1.167   4.259  10.484  0.7415 -0.4769  0.4891
18896SOL    HW258130   1.064   4.166  10.423 -1.1357  2.3666 -0.8621
18897SOL     OW58131   7.192   0.446   8.505  0.1594 -0.3542 -0.8017
18897SOL    HW158132   7.198   0.371   8.445  2.8422  0.7270 -2.0734
18897SOL    HW258133   7.283   0.462   8.531 -0.6032  1.1816  1.1224
18898SOL     OW58134   3.308   4.270   9.079 -0.1227  0.0076  0.0348
18898SOL    HW158135   3.403   4.283   9.086 -0.3535  2.3498 -0.5771
18898SOL    HW258136   3.275   4.290   9.166 -0.0449 -1.4716  0.4413
18899SOL     OW58137   7.386   1.089   7.771  0.1132 -0.0003 -0.5064
18899SOL    HW158138   7.296   1.115   7.751 -0.0485  0.0751  0.2900
18899SOL    HW258139   7.390   1.090   7.867  0.6154 -1.1896 -0.5105
18900SOL     OW58140   1.215   7.950   0.817  0.1793  0.3590 -0.0740
18900SOL    HW158141   1.204   7.881   0.883  1.8148 -0.3943 -0.5624
18900SOL    HW258142   1.234   7.904   0.736  1.2642  1.3720 -0.4261
18901SOL     OW58143   5.170   1.255   5.413  0.0189  0.4463 -0.1025
18901SOL    HW158144   5.159   1.255   5.318 -1.5736 -0.2468  0.0412
18901SOL    HW258145   5.128   1.337   5.442  1.6391  1.3005 -0.0719
18902SOL     OW58146   5.496   4.434   0.939 -0.0896  0.1298 -0.5156
18902SOL    HW158147   5.475   4.410   0.848 -0.1690 -1.9691  0.0053
18902SOL    HW258148   5.591   4.427   0.944 -0.1321 -0.3284 -0.3019
18903SOL     OW58149   6.583   7.547   1.015 -1.2437  0.2825  0.2625
18903SOL    HW158150   6.546   7.555   0.927 -0.1119  2.1443 -0.0852
18903SOL    HW258151   6.591   7.452   1.028 -3.7075 -0.1242 -0.6195
18904SOL     OW58152   5.581   4.192   5.873 -0.5295 -0.4215  0.1924
18904SOL    HW158153   5.667   4.223   5.902 -0.8639 -1.2001  2.2345
18904SOL    HW258154   5.548   4.141   5.948 -2.7018 -0.2630 -0.5910
18905SOL     OW58155   7.673   7.266   3.099  0.0811 -0.0407 -0.2104
18905SOL    HW158156   7.615   7.192   3.112  0.8175 -0.9449 -1.7272
18905SOL    HW258157   7.622   7.342   3.127 -0.7592 -1.0780  1.1944
18906SOL     OW58158   4.513   4.678   4.244 -0.0983 -0.1062  0.5560
18906SOL    HW158159   4.424   4.663   4.211 -0.3045 -0.2058  1.1309
18906SOL    HW258160   4.509   4.765   4.284  0.5247  0.6155 -0.8976
18907SOL     OW58161   7.482   2.754  11.561 -0.5985 -0.1857 -0.1094
18907SOL    HW158162   7.576   2.764  11.550 -0.6052  0.4139  0.3489
18907SOL    HW258163   7.444   2.814  11.497 -0.6622 -0.0458  0.0580
18908SOL     OW58164   5.623   1.620   4.469 -0.4726 -0.6238  0.1475
18908SOL    HW158165   5.583   1.697   4.511  0.1457 -0.3069  0.1634
18908SOL    HW258166   5.716   1.627   4.489 -0.1971 -0.6045 -1.0684
18909SOL     OW58167   5.680   7.068   5.345  0.3326  0.6377  0.1235
18909SOL    HW158168   5.755   7.127   5.349  1.0181  0.0863 -2.8459
18909SOL    HW258169   5.715   6.983   5.372  0.9527  0.2972 -1.6178
18910SOL     OW58170   2.429   2.453  10.840  0.0694  0.1395 -0.0558
18910SOL    HW158171   2.390   2.529  10.798  0.5312  0.4043 -0.0109
18910SOL    HW258172   2.457   2.397  10.767 -1.8666 -0.8435 -0.1088
18911SOL     OW58173   7.007   5.429   8.085  0.5951  0.0901 -0.1729
18911SOL    HW158174   7.007   5.525   8.076  0.2879  0.1319  0.2295
18911SOL    HW258175   7.018   5.396   7.996 -2.2813  0.4707 -0.7334
18912SOL     OW58176   5.035   4.608   8.558 -0.4996 -0.6057  0.1374
18912SOL    HW158177   4.990   4.525   8.542  0.1359 -1.0138  0.4086
18912SOL    HW258178   5.048   4.611   8.653 -1.1668  0.1547  0.2157
18913SOL     OW58179   7.773   1.617   5.022  0.2878 -0.3965 -0.0156
18913SOL    HW158180   7.792   1.561   5.096 -0.2549 -1.2211 -0.4847
18913SOL    HW258181   7.789   1.562   4.945 -2.1593 -0.5872 -0.4566
18914SOL     OW58182   5.465   6.753   4.597 -0.0546  0.1051 -0.5244
18914SOL    HW158183   5.529   6.752   4.668 -0.3878 -0.6717 -0.2213
18914SOL    HW258184   5.516   6.773   4.519  0.6908 -1.1886 -0.3930
18915SOL     OW58185   3.470   6.365   9.118  0.4648 -0.2708 -0.5057
18915SOL    HW158186   3.382   6.349   9.083 -0.1318 -0.4840  1.0089
18915SOL    HW258187   3.485   6.293   9.179  0.8646  0.8058  0.7223
18916SOL     OW58188   0.513   1.930   8.808  0.1774  0.1531  0.3347
18916SOL    HW158189   0.551   1.889   8.886  2.1232 -0.4526 -0.8651
18916SOL    HW258190   0.541   2.021   8.813 -1.6362  0.7025  1.4635
18917SOL     OW58191   7.595   6.566   4.349  0.3629 -0.4584 -0.1358
18917SOL    HW158192   7.645   6.573   4.430 -0.5476 -0.0756  0.4055
18917SOL    HW258193   7.538   6.643   4.348 -0.0982 -0.7903 -0.8213
18918SOL     OW58194   1.076   6.315  11.805  0.0689  0.0845 -0.8785
18918SOL    HW158195   1.156   6.265  11.824  0.3819  1.0102  0.4045
18918SOL    HW258196   1.107   6.406  11.794 -0.7536  0.3781 -0.8121
18919SOL     OW58197   6.256   2.265  11.057  0.2881  0.8934 -0.2390
18919SOL    HW158198   6.244   2.215  11.137  1.4034 -1.4559 -1.4611
18919SOL    HW258199   6.339   2.311  11.070  0.6397  0.2433 -0.2018
18920SOL     OW58200   2.510   2.512  12.116 -0.2744 -0.0295  0.3528
18920SOL    HW158201   2.458   2.505  12.196 -0.1470 -0.0021  0.4392
18920SOL    HW258202   2.600   2.524  12.147  0.0041 -1.5863  0.2275
18921SOL     OW58203   3.416   1.363  11.937  0.0217  0.0528 -0.3408
18921SOL    HW158204   3.489   1.301  11.933  0.6904  0.8566 -0.9318
18921SOL    HW258205   3.432   1.415  12.015  1.4849  1.8792 -1.7805
18922SOL     OW58206   1.284   4.012   8.552  0.5166  0.1115 -0.1670
18922SOL    HW158207   1.360   3.956   8.534 -0.5063 -0.9612 -1.3486
18922SOL    HW258208   1.238   3.968   8.623  0.8733  0.6650  0.4230
18923SOL     OW58209   5.094   1.362   1.736 -0.1719 -0.0538  0.0056
18923SOL    HW158210   5.020   1.418   1.712  0.8826  1.1723 -0.4521
18923SOL    HW258211   5.068   1.275   1.706 -1.0131  0.5467 -1.0699
18924SOL     OW58212   2.678   2.510   1.265 -0.0718 -0.2956 -0.0319
18924SOL    HW158213   2.665   2.486   1.357  0.8793 -0.2875  0.1228
18924SOL    HW258214   2.757   2.462   1.239  1.3926  1.9092  0.0372
18925SOL     OW58215   0.340   3.486   4.241 -0.0443 -0.1090 -0.3357
18925SOL    HW158216   0.393   3.408   4.228 -0.3724 -0.5747  0.9223
18925SOL    HW258217   0.401   3.559   4.233  0.7772 -0.6258  0.9526
18926SOL     OW58218   1.251   4.801  11.216 -0.0852  0.5929 -0.1081
18926SOL    HW158219   1.333   4.850  11.223  0.3693 -0.2216  0.4575
18926SOL    HW258220   1.278   4.709  11.216 -1.1070  0.1978  2.5710
18927SOL     OW58221   3.279   5.373   1.932  0.1770 -0.6846  0.7739
18927SOL    HW158222   3.365   5.412   1.943 -0.0630  0.2352 -0.3960
18927SOL    HW258223   3.265   5.321   2.012  2.1050 -1.4740  0.6364
18928SOL     OW58224   1.182   2.809  11.245  0.0044  0.0458 -0.8881
18928SOL    HW158225   1.273   2.824  11.270 -0.0786 -0.3438 -0.3438
18928SOL    HW258226   1.143   2.897  11.246  0.5860  0.3390 -2.0372
18929SOL     OW58227   4.399   2.030   8.528  0.2868 -0.4985  0.2951
18929SOL    HW158228   4.312   1.998   8.503  0.0970 -0.1407  0.4958
18929SOL    HW258229   4.450   1.950   8.544  0.2297 -0.7252 -0.6063
18930SOL     OW58230   6.224   5.254   8.290 -0.3755  0.1690  0.0869
18930SOL    HW158231   6.188   5.342   8.286 -0.4030  0.1290 -0.7843
18930SOL    HW258232   6.244   5.232   8.199 -0.2402 -0.6704  0.3097
18931SOL     OW58233   1.314   7.322   7.224  0.1098 -0.9462 -0.2926
18931SOL    HW158234   1.375   7.263   7.181  0.0522 -0.8106 -0.5700
18931SOL    HW258235   1.284   7.275   7.301  1.3777 -0.5955  0.4413
18932SOL     OW58236   5.564   7.473   7.071 -0.3313 -0.5120 -0.1999
18932SOL    HW158237   5.618   7.529   7.127 -0.5945 -1.5795  1.1794
18932SOL    HW258238   5.479   7.515   7.070 -0.7921 -1.2968  1.5848
18933SOL     OW58239   1.296   4.738   9.380 -0.7562 -0.4698  0.1190
18933SOL    HW158240   1.247   4.671   9.332 -1.2302  0.4591 -0.7350
18933SOL    HW258241   1.359   4.689   9.432 -0.6378 -1.5412 -0.9935
18934SOL     OW58242   4.564   1.656   0.217 -0.4521 -0.6451  0.7571
18934SOL    HW158243   4.521   1.584   0.170 -1.4745 -0.7129  1.7430
18934SOL    HW258244   4.657   1.636   0.212 -0.6490 -1.4188  0.0173
18935SOL     OW58245   3.110   5.653   9.478  0.1725 -0.0423 -0.3011
18935SOL    HW158246   3.081   5.628   9.390  0.5781 -0.6900 -0.2541
18935SOL    HW258247   3.120   5.748   9.473 -0.2973 -0.0138 -0.8098
18936SOL     OW58248   2.920   3.189   3.056 -0.1491  0.0274 -0.1889
18936SOL    HW158249   2.930   3.104   3.012 -0.9226  0.9347 -2.2233
18936SOL    HW258250   2.937   3.170   3.148  2.1717 -1.8523 -0.9182
18937SOL     OW58251   6.379   6.855   7.145  0.6875  0.0927 -0.0818
18937SOL    HW158252   6.302   6.859   7.089  0.8387  0.4222 -0.2656
18937SOL    HW258253   6.431   6.782   7.109  0.8769  0.4242 -0.4950
18938SOL     OW58254   6.868   6.884   5.192  0.0191  0.4448  0.0516
18938SOL    HW158255   6.858   6.834   5.112  0.4939  0.0058  0.2585
18938SOL    HW258256   6.961   6.877   5.213 -0.3023 -0.4877  1.3019
18939SOL     OW58257   6.007   6.345   9.572 -0.1320 -0.1306 -0.1472
18939SOL    HW158258   5.924   6.298   9.562  0.7240 -1.4756 -1.2844
18939SOL    HW258259   5.997   6.423   9.517 -0.7682 -0.1002  0.0033
18940SOL     OW58260   1.950   4.105   3.720  0.3841  0.0225 -0.5393
18940SOL    HW158261   1.873   4.072   3.767  1.4463  2.3232  3.2638
18940SOL    HW258262   2.007   4.030   3.711 -0.3061 -0.7616  1.1284
18941SOL     OW58263   3.474   1.427   8.234  0.1299 -0.4846  0.6883
18941SOL    HW158264   3.414   1.370   8.283  0.7833  0.5304  2.8039
18941SOL    HW258265   3.428   1.511   8.228 -0.0003 -0.6316 -0.6385
18942SOL     OW58266   4.943   0.197   0.180 -0.0434  0.1946 -0.2522
18942SOL    HW158267   4.952   0.292   0.186  1.1185  0.1495 -0.9378
18942SOL    HW258268   4.913   0.170   0.267 -1.1889  1.2527 -0.2857
18943SOL     OW58269   1.367   2.045   4.739 -0.0437 -0.5602 -0.0846
18943SOL    HW158270   1.325   1.999   4.812 -0.7268 -0.4338 -0.3929
18943SOL    HW258271   1.399   2.126   4.777 -0.2186 -0.5864  0.1203
18944SOL     OW58272   3.097   4.179   5.207 -0.5477  0.3715  0.3810
18944SOL    HW158273   3.146   4.114   5.158 -1.6146 -0.7470  0.7522
18944SOL    HW258274   3.017   4.192   5.156 -0.2593  1.5822  0.1935
18945SOL     OW58275   0.493   5.349   6.905 -0.5305 -0.0337 -0.5176
18945SOL    HW158276   0.402   5.378   6.910 -0.1789  0.9163  0.7464
18945SOL    HW258277   0.522   5.374   6.817 -1.0165  1.1269 -0.3646
18946SOL     OW58278   0.265   3.776   7.905  0.2339 -0.5605 -0.3404
18946SOL    HW158279   0.252   3.694   7.954 -0.9554 -0.2253 -0.0376
18946SOL    HW258280   0.309   3.834   7.968  0.9223 -0.9040 -0.4975
18947SOL     OW58281   4.062   1.885   9.375 -0.1915 -0.6267 -0.3592
18947SOL    HW158282   4.054   1.816   9.309  1.1432 -0.0363 -1.1999
18947SOL    HW258283   4.156   1.903   9.379 -0.5411  1.5786 -0.6420
18948SOL     OW58284   2.184   1.774   2.300  0.0921 -0.3341  0.2765
18948SOL    HW158285   2.137   1.834   2.242  0.1176  0.2782  0.8673
18948SOL    HW258286   2.207   1.828   2.376 -1.1613 -1.4570  1.4975
18949SOL     OW58287   4.341   5.370   2.082  0.2488  0.2892 -0.4895
18949SOL    HW158288   4.292   5.452   2.089 -0.2033 -0.0133  0.0437
18949SOL    HW258289   4.306   5.328   2.003 -1.6320 -0.7071  0.7763
18950SOL     OW58290   2.629   3.690   4.738  0.1364 -0.2978 -0.4716
18950SOL    HW158291   2.534   3.700   4.739 -0.1334 -2.1092 -1.9097
18950SOL    HW258292   2.646   3.626   4.669  2.4182 -0.0075 -0.2768
18951SOL     OW58293   6.001   4.792   9.019  0.1773 -0.3330  0.2120
18951SOL    HW158294   6.074   4.740   9.053 -0.0098 -1.0525 -0.4694
18951SOL    HW258295   5.966   4.837   9.096 -2.0232 -4.0621  1.6228
18952SOL     OW58296   2.656   0.029   6.536  0.6766 -0.2371  0.4529
18952SOL    HW158297   2.566   0.054   6.511  0.4353 -0.6076  0.9468
18952SOL    HW258298   2.701   0.018   6.452  0.1893 -0.3105  0.1938
18953SOL     OW58299   4.163   5.198   6.987  0.1944 -0.8631 -0.3057
18953SOL    HW158300   4.141   5.134   6.919 -0.1790 -0.7197 -0.3206
18953SOL    HW258301   4.085   5.254   6.993 -0.4421 -1.8785  1.4034
18954SOL     OW58302   1.747   3.199   3.203  0.5113 -0.0567  0.1614
18954SOL    HW158303   1.654   3.207   3.184  0.7281 -2.3427 -2.6496
18954SOL    HW258304   1.751   3.142   3.280 -0.3955  0.6625  0.7563
18955SOL     OW58305   3.606   2.643   0.894  1.2266  0.2599  0.0836
18955SOL    HW158306   3.594   2.641   0.799 -0.4200  0.5778  0.2508
18955SOL    HW258307   3.668   2.714   0.909  0.5731  1.0286 -0.7046
18956SOL     OW58308   7.147   0.277   8.242 -0.4084  0.3506  0.0816
18956SOL    HW158309   7.167   0.278   8.149  0.7666  1.2287  0.3178
18956SOL    HW258310   7.106   0.192   8.257 -0.0797 -0.0388 -1.1229
18957SOL     OW58311   6.690   0.432   8.496 -0.0164  0.0708  0.1280
18957SOL    HW158312   6.708   0.503   8.434 -0.2839 -0.7903 -0.9546
18957SOL    HW258313   6.595   0.420   8.493  0.1950 -1.7531 -1.3590
18958SOL     OW58314   5.044   6.244   5.863 -0.6207  0.3170 -0.1729
18958SOL    HW158315   5.071   6.164   5.908  0.0383  0.2756 -0.6238
18958SOL    HW258316   4.977   6.216   5.802  0.1106 -0.0329 -0.8402
18959SOL     OW58317   1.477   7.517   5.990 -0.0200 -0.0611 -0.2266
18959SOL    HW158318   1.406   7.520   6.053  0.0722 -0.1007 -0.1204
18959SOL    HW258319   1.531   7.593   6.011 -0.9573  0.9715 -1.4076
18960SOL     OW58320   0.220   6.179   2.038  0.1345  0.0925  0.5739
18960SOL    HW158321   0.138   6.166   1.990  1.0165 -1.1759 -0.6507
18960SOL    HW258322   0.250   6.266   2.010 -0.9233  0.7053  1.2742
18961SOL     OW58323   3.293   0.917   0.363 -0.2052 -0.6251  0.0457
18961SOL    HW158324   3.308   0.957   0.277 -1.5183 -0.0107  0.0821
18961SOL    HW258325   3.324   0.984   0.425  0.3569 -0.8979  0.0625
18962SOL     OW58326   2.992   1.474   2.579 -0.1913  0.5743  0.6396
18962SOL    HW158327   2.938   1.553   2.575 -0.1264  0.5666 -1.1450
18962SOL    HW258328   3.063   1.490   2.516  0.1114 -0.6973  0.6329
18963SOL     OW58329   5.538   6.469  11.805 -0.0782 -0.3508  0.2963
18963SOL    HW158330   5.609   6.532  11.813 -0.8949  0.4345  1.5690
18963SOL    HW258331   5.463   6.521  11.776 -0.6164 -0.8286  0.8128
18964SOL     OW58332   4.349   2.837  11.139  1.0546  0.3695 -0.2245
18964SOL    HW158333   4.402   2.912  11.168 -0.3491  2.3049 -2.3703
18964SOL    HW258334   4.259   2.865  11.152  0.4901 -0.6864 -1.6395
18965SOL     OW58335   7.650   6.745   5.852 -0.6183  0.1085 -0.0005
18965SOL    HW158336   7.578   6.762   5.791 -1.9902 -2.3556  0.7670
18965SOL    HW258337   7.617   6.775   5.937 -0.1372  0.3013  0.1218
18966SOL     OW58338   6.389   7.592   7.532  0.0560 -1.0106 -0.4208
18966SOL    HW158339   6.301   7.555   7.537  0.1462 -1.2632 -0.6996
18966SOL    HW258340   6.424   7.583   7.621 -0.4954 -0.1693 -0.1034
18967SOL     OW58341   2.378   3.129  11.446  0.8689 -0.6422 -0.1176
18967SOL    HW158342   2.403   3.163  11.532 -1.2244 -0.8656  0.6407
18967SOL    HW258343   2.322   3.198  11.409  1.2520 -0.8177 -1.0640
18968SOL     OW58344   5.720   1.878  10.898 -0.3151 -0.2630  0.1052
18968SOL    HW158345   5.719   1.844  10.809  0.3755 -1.3541  0.4965
18968SOL    HW258346   5.701   1.802  10.954  2.3341 -0.3530  1.0627
18969SOL     OW58347   1.378   3.097   8.699 -0.0434 -0.3092 -0.2469
18969SOL    HW158348   1.416   3.011   8.711  0.6350  0.1151  0.7063
18969SOL    HW258349   1.411   3.149   8.771 -0.5909  0.7095 -0.7033
18970SOL     OW58350   1.685   2.368   2.437  0.4726 -0.0311  0.2257
18970SOL    HW158351   1.622   2.366   2.366  0.0428  1.8730  0.5006
18970SOL    HW258352   1.680   2.280   2.476 -1.6533 -0.0874 -0.0578
18971SOL     OW58353   5.616   3.714  11.816  0.0985  0.1231 -0.0276
18971SOL    HW158354   5.700   3.751  11.787  0.1494  0.9575  1.1141
18971SOL    HW258355   5.551   3.760  11.763  0.2781  0.4444  0.0272
18972SOL     OW58356   4.134   0.024   0.493 -0.0819  0.5013  0.4077
18972SOL    HW158357   4.078   0.090   0.533 -0.9068 -0.2074  0.4410
18972SOL    HW258358   4.171   0.068   0.416 -1.9419  0.5211 -0.5369
18973SOL     OW58359   2.959   5.672   1.121 -0.0562 -0.3245  0.4294
18973SOL    HW158360   2.983   5.613   1.050 -0.6883 -1.7745  1.3711
18973SOL    HW258361   2.920   5.748   1.077  1.8023 -0.0438 -0.8600
18974SOL     OW58362   1.094   5.395   8.547  0.1503 -0.7181  0.2951
18974SOL    HW158363   1.088   5.398   8.643 -1.8005  1.3260  0.2000
18974SOL    HW258364   1.168   5.452   8.526 -1.4495  1.5641  0.5461
18975SOL     OW58365   4.340   1.932   6.788 -0.7943  0.9491  0.4834
18975SOL    HW158366   4.376   1.980   6.863  1.6469  0.5112 -0.3185
18975SOL    HW258367   4.351   1.992   6.714 -1.1078  0.5277  0.0923
18976SOL     OW58368   6.393   0.973   4.923  0.6679 -0.5584  0.1386
18976SOL    HW158369   6.481   0.974   4.887  0.6105  0.0328  0.0019
18976SOL    HW258370   6.398   0.914   4.998  1.6464  0.9054  1.2832
18977SOL     OW58371   1.452   3.275   4.385  0.3444 -0.5954 -0.1147
18977SOL    HW158372   1.547   3.273   4.379  0.2858 -0.0378 -1.4840
18977SOL    HW258373   1.423   3.194   4.343  0.1541  0.4036 -2.0180
18978SOL     OW58374   1.822   6.307   6.910  0.5013  0.3584 -0.0295
18978SOL    HW158375   1.761   6.328   6.981 -0.8680  0.7240 -1.2605
18978SOL    HW258376   1.880   6.384   6.905  1.2686 -0.0999  1.3098
18979SOL     OW58377   0.997   5.999  11.037  1.0135 -0.5864  0.1598
18979SOL    HW158378   1.008   6.063  10.967  0.6027 -0.5522  0.1224
18979SOL    HW258379   1.012   5.914  10.995 -1.6408 -0.7839 -0.5840
18980SOL     OW58380   2.784   3.925   3.080  0.5022  0.2016  0.4151
18980SOL    HW158381   2.737   3.942   2.999  0.2222 -1.0156  0.2954
18980SOL    HW258382   2.826   3.840   3.066  2.3229  1.0112  0.7176
18981SOL     OW58383   3.603   7.231   6.219 -0.0685  0.2790 -0.3030
18981SOL    HW158384   3.530   7.192   6.170  1.0952 -1.9186 -0.4109
18981SOL    HW258385   3.638   7.299   6.161 -1.5894  0.9436 -0.5019
18982SOL     OW58386   1.662   1.525  11.614  0.3380  0.0968  0.0079
18982SOL    HW158387   1.695   1.509  11.526 -1.9687  1.6568 -1.2398
18982SOL    HW258388   1.595   1.458  11.627 -0.0324  0.4969  0.1681
18983SOL     OW58389   7.422   2.097   5.208  0.1742 -0.0315 -0.4127
18983SOL    HW158390   7.476   2.126   5.281 -0.3597  0.4246 -0.1933
18983SOL    HW258391   7.484   2.053   5.149  0.8654  0.8228 -0.3585
18984SOL     OW58392   7.521   3.547   5.339  0.3790  0.3686  0.6673
18984SOL    HW158393   7.580   3.611   5.299 -0.5026  0.0128 -1.3099
18984SOL    HW258394   7.580   3.479   5.373  1.1568  0.4133 -0.5395
18985SOL     OW58395   0.568   0.499   6.636 -0.0168 -0.0035 -0.2226
18985SOL    HW158396   0.504   0.445   6.682 -0.7330  0.6458 -0.4188
18985SOL    HW258397   0.526   0.518   6.552  0.9437 -0.5342 -0.8302
18986SOL     OW58398   5.636   4.190   6.425 -0.0025 -0.1899 -0.1871
18986SOL    HW158399   5.699   4.158   6.361 -0.5774 -0.4626 -0.6235
18986SOL    HW258400   5.673   4.272   6.457  1.9386 -1.6405  1.5753
18987SOL     OW58401   6.053   0.054  11.010  0.0094  0.8374  0.3516
18987SOL    HW158402   6.097   0.095  10.936 -0.3396 -0.4998 -0.6266
18987SOL    HW258403   5.968   0.026  10.975  0.1404 -0.5008  1.0248
18988SOL     OW58404   6.086   5.688  11.527 -0.2211 -0.1294  0.2428
18988SOL    HW158405   6.159   5.743  11.498 -0.7274  1.4759  1.7919
18988SOL    HW258406   6.065   5.721  11.615 -0.9027 -2.4979  1.0531
18989SOL     OW58407   5.031   7.483   2.641  0.0507  0.1636  0.2959
18989SOL    HW158408   5.037   7.571   2.604 -0.4877  0.0945  0.0347
18989SOL    HW258409   4.986   7.495   2.724 -0.2972  0.0968  0.1180
18990SOL     OW58410   1.914   3.406   0.717 -0.1480 -0.1968 -0.2904
18990SOL    HW158411   1.935   3.393   0.809 -0.0976  0.3643 -0.2147
18990SOL    HW258412   1.998   3.430   0.677 -0.2747  0.1499 -0.3587
18991SOL     OW58413   7.639   3.216   8.481  0.1380 -0.0717 -0.0242
18991SOL    HW158414   7.638   3.131   8.437 -0.0840 -0.5110  0.8239
18991SOL    HW258415   7.666   3.277   8.412  1.8633 -1.0365 -0.2763
18992SOL     OW58416   5.833   0.587   3.164 -0.0302 -0.4148  0.2187
18992SOL    HW158417   5.791   0.587   3.078 -0.3818 -2.2490  0.3392
18992SOL    HW258418   5.774   0.638   3.219  1.2701  2.6562 -1.0346
18993SOL     OW58419   7.946   1.971  10.751  0.3489  0.4086  0.5099
18993SOL    HW158420   7.910   1.883  10.742  1.1832 -0.0298  1.3645
18993SOL    HW258421   7.901   2.008  10.827  0.9588  0.2201  0.9718
18994SOL     OW58422   5.671   2.869   1.213  0.2818 -0.0488 -1.0754
18994SOL    HW158423   5.723   2.945   1.186 -0.7109  0.4062 -1.7480
18994SOL    HW258424   5.580   2.896   1.200 -0.0845 -1.4568 -1.6268
18995SOL     OW58425   1.154   1.144   3.701  0.2377 -0.1457 -0.1653
18995SOL    HW158426   1.240   1.109   3.678 -0.0417 -1.1872  0.3385
18995SOL    HW258427   1.125   1.091   3.775 -1.3487 -0.6043 -1.0737
18996SOL     OW58428   4.040   1.437   1.347 -0.0198 -0.5142 -0.1395
18996SOL    HW158429   3.992   1.353   1.344  0.2647 -0.6631 -0.6108
18996SOL    HW258430   4.132   1.412   1.340  0.0681 -0.1640 -0.2361
18997SOL     OW58431   7.302   4.575  11.855  0.1480  0.4642  1.1757
18997SOL    HW158432   7.231   4.537  11.906 -0.1903  1.1500  1.2195
18997SOL    HW258433   7.375   4.514  11.867 -0.2555  0.0552  1.5919
18998SOL     OW58434   4.486   5.509   8.217 -0.2201 -0.2877  0.2586
18998SOL    HW158435   4.540   5.430   8.214  0.1774 -0.0110 -1.8680
18998SOL    HW258436   4.416   5.491   8.154  0.3478  1.3206 -0.8974
18999SOL     OW58437   3.625   5.009   0.923 -0.6957 -0.1305 -0.1388
18999SOL    HW158438   3.592   5.017   0.833  0.1984  0.9812 -0.3837
18999SOL    HW258439   3.709   4.963   0.913 -1.7210 -2.2694  0.4085
19000SOL     OW58440   5.806   5.782   2.314  0.8800  0.0698  0.0770
19000SOL    HW158441   5.731   5.725   2.332  0.5101  1.0127  1.6819
19000SOL    HW258442   5.796   5.807   2.223 -2.4145  2.4609  0.9279
19001SOL     OW58443   2.795   3.742   6.615  0.3457 -0.4103  0.4045
19001SOL    HW158444   2.757   3.825   6.587 -0.4712 -0.4232  1.4219
19001SOL    HW258445   2.888   3.762   6.630  0.3744  0.0613 -0.3180
19002SOL     OW58446   5.993   4.701   8.615  0.5821 -0.4639 -0.2433
19002SOL    HW158447   6.079   4.737   8.594  0.6030 -0.6765 -0.5418
19002SOL    HW258448   6.011   4.609   8.635  0.4651 -0.4314  0.0127
19003SOL     OW58449   4.943   0.519   0.765 -0.2734  0.0328  0.1989
19003SOL    HW158450   4.848   0.526   0.771 -0.2499 -0.3050  1.1690
19003SOL    HW258451   4.958   0.466   0.686 -0.8784  0.2442 -0.0631
19004SOL     OW58452   1.753   3.958   5.621  0.7579 -0.0104  0.6881
19004SOL    HW158453   1.744   3.863   5.624  1.1449 -0.0734  0.1275
19004SOL    HW258454   1.847   3.973   5.613  0.6802  0.4080  0.5078
19005SOL     OW58455   2.380   6.911   0.410 -0.6048 -0.3229 -0.4756
19005SOL    HW158456   2.372   6.997   0.369 -0.1957 -0.6703 -1.3140
19005SOL    HW258457   2.302   6.863   0.381 -0.0905 -0.7187 -1.2468
19006SOL     OW58458   7.852   4.682   0.526 -0.2302  0.0766  0.0884
19006SOL    HW158459   7.845   4.773   0.497  0.2621 -0.3178 -1.3923
19006SOL    HW258460   7.917   4.643   0.467 -1.8254 -1.7136 -0.6173
19007SOL     OW58461   5.815   0.108   4.290 -0.2510  0.3131 -0.4278
19007SOL    HW158462   5.889   0.061   4.252  0.3449  1.0809 -0.2274
19007SOL    HW258463   5.847   0.140   4.375 -0.9983  0.1533 -0.0727
19008SOL     OW58464   7.485   4.425   3.560  0.0713 -0.6399 -1.1962
19008SOL    HW158465   7.452   4.505   3.519 -1.0484  0.2530  1.2316
19008SOL    HW258466   7.537   4.456   3.635  0.4318 -2.1673 -0.7760
19009SOL     OW58467   5.349   4.336   3.099 -0.1502  0.4801 -0.7002
19009SOL    HW158468   5.403   4.310   3.174 -0.2065 -0.2376 -0.9038
19009SOL    HW258469   5.336   4.430   3.111  0.0263  0.4150  0.0717
19010SOL     OW58470   1.711   3.400   5.641  0.3261  0.5666  0.1120
19010SOL    HW158471   1.642   3.425   5.578 -1.6004  0.1436  1.9294
19010SOL    HW258472   1.777   3.469   5.632 -1.3064  2.1788 -0.3068
19011SOL     OW58473   6.976   0.739   1.235 -0.3451  0.1112 -0.0141
19011SOL    HW158474   6.900   0.703   1.189 -0.6153 -1.1808  1.3803
19011SOL    HW258475   7.032   0.774   1.165 -2.2510  1.2275 -1.0782
19012SOL     OW58476   4.304   6.917   5.601 -0.1577 -0.1224  0.4619
19012SOL    HW158477   4.229   6.859   5.607 -0.8185  0.2784 -2.2850
19012SOL    HW258478   4.371   6.866   5.555 -0.5905  1.0153 -1.5909
19013SOL     OW58479   4.195   4.882   2.720 -0.5929  0.1851  0.1244
19013SOL    HW158480   4.131   4.876   2.649 -1.7657 -0.5379  1.1889
19013SOL    HW258481   4.148   4.850   2.797  0.0403  2.6063  1.6344
19014SOL     OW58482   0.547   5.949   8.232  0.4275  0.0588 -0.4863
19014SOL    HW158483   0.538   5.910   8.145  1.3464 -0.8595 -0.1812
19014SOL    HW258484   0.586   5.881   8.286 -0.8250  0.3605  0.8602
19015SOL     OW58485   1.734   4.823   1.751  0.1297 -0.4637  0.4784
19015SOL    HW158486   1.791   4.773   1.693 -0.5004  1.3551 -1.8912
19015SOL    HW258487   1.654   4.771   1.758  0.7276 -1.3444  0.8917
19016SOL     OW58488   6.380   7.540   3.484  0.1915  0.2709  0.3980
19016SOL    HW158489   6.436   7.511   3.556 -1.0921  0.5855  1.5445
19016SOL    HW258490   6.296   7.561   3.524 -0.7291 -0.0235 -1.2605
19017SOL     OW58491   7.184   3.093   8.068 -0.1057  0.8687  0.1314
19017SOL    HW158492   7.193   3.017   8.011  0.7010  1.8522 -1.1079
19017SOL    HW258493   7.273   3.121   8.086 -0.3889  1.7215  0.2773
19018SOL     OW58494   7.228   1.034   5.365 -0.0096 -0.0113  0.2779
19018SOL    HW158495   7.312   1.010   5.404  1.1079  1.2997 -1.1890
19018SOL    HW258496   7.197   0.953   5.324 -0.1776 -0.8634  2.0102
19019SOL     OW58497   3.089   6.155   4.982 -0.4881  0.3192  0.0113
19019SOL    HW158498   3.108   6.107   4.901 -0.9770  0.0992  0.0213
19019SOL    HW258499   3.085   6.247   4.955 -1.7927  0.1498 -0.4458
19020SOL     OW58500   5.731   1.544   5.997 -0.4927  0.7742 -0.2448
19020SOL    HW158501   5.691   1.481   5.938  0.4714  0.0508 -0.1436
19020SOL    HW258502   5.660   1.571   6.055 -1.1920  0.6915 -1.0459
19021SOL     OW58503   5.154   5.918  11.865  0.3824 -0.0273 -0.1742
19021SOL    HW158504   5.138   5.866  11.943  1.2667  0.4389  0.3409
19021SOL    HW258505   5.082   5.896  11.805  0.2342 -1.1120  0.3897
19022SOL     OW58506   4.232   5.823  10.262 -0.3558 -0.0977 -0.6750
19022SOL    HW158507   4.323   5.794  10.250  0.0124  1.0419 -0.7827
19022SOL    HW258508   4.233   5.915  10.235 -1.2382  0.3235  0.6171
19023SOL     OW58509   6.722   4.065   0.904 -0.1749 -0.1992 -0.5755
19023SOL    HW158510   6.703   4.106   0.820 -1.7575  0.5015  0.1021
19023SOL    HW258511   6.704   3.972   0.889  0.3072 -0.1978 -1.2170
19024SOL     OW58512   5.719   3.254  11.447  0.1567  0.2389 -0.4876
19024SOL    HW158513   5.743   3.345  11.465  0.6709  0.4740 -2.1183
19024SOL    HW258514   5.655   3.232  11.514 -0.5873  2.0683 -0.5336
19025SOL     OW58515   0.030   1.128  10.930 -0.2173  0.5188  0.0239
19025SOL    HW158516  -0.020   1.060  10.974 -1.2829  1.0941 -0.2393
19025SOL    HW258517  -0.016   1.141  10.847  0.5903  0.8239 -0.3870
19026SOL     OW58518   7.061   1.686   2.247 -0.5434  0.0010  0.7788
19026SOL    HW158519   7.045   1.642   2.163  0.7568  0.2721  0.3766
19026SOL    HW258520   7.088   1.775   2.222  2.6519 -0.7145  1.3129
19027SOL     OW58521   7.842   3.588   2.297  0.0372 -0.0653 -0.6335
19027SOL    HW158522   7.824   3.527   2.368  0.5538 -1.3301 -1.5673
19027SOL    HW258523   7.764   3.643   2.293 -1.6284 -2.3205 -1.4260
19028SOL     OW58524   5.517   2.496   6.434 -0.1780 -0.4930 -0.1765
19028SOL    HW158525   5.552   2.569   6.382 -3.0784  1.9593  0.9767
19028SOL    HW258526   5.439   2.468   6.385 -0.8843 -0.5924  0.9693
19029SOL     OW58527   4.191   6.231  11.176  0.3587  0.1327 -0.3684
19029SOL    HW158528   4.254   6.281  11.123  0.0264 -0.7687 -1.6612
19029SOL    HW258529   4.210   6.140  11.155 -0.4237 -0.2028  0.3508
19030SOL     OW58530   4.146   0.593   4.844 -0.5542  0.6028  1.0679
19030SOL    HW158531   4.141   0.644   4.763 -1.5449  0.2471  0.8830
19030SOL    HW258532   4.066   0.540   4.843 -0.5630  0.5725  2.2676
19031SOL     OW58533   5.440   6.609   0.265 -0.3128 -0.5447  0.2247
19031SOL    HW158534   5.535   6.610   0.258 -0.3100  0.7702  0.2605
19031SOL    HW258535   5.410   6.675   0.203 -1.0684  0.5563  1.7057
19032SOL     OW58536   1.094   4.075   0.601 -0.3691 -0.0308 -0.2997
19032SOL    HW158537   1.008   4.112   0.582 -1.2181 -2.2709 -1.2379
19032SOL    HW258538   1.079   3.981   0.605  2.1022 -0.5326 -0.8278
19033SOL     OW58539   2.600   1.436   1.945 -0.3869  0.0167 -0.0761
19033SOL    HW158540   2.621   1.404   2.033  0.6359 -0.7992 -0.5857
19033SOL    HW258541   2.505   1.445   1.945 -0.7559 -2.8938  0.1960
19034SOL     OW58542   7.547   1.295   1.469 -0.0510  0.1663 -0.4815
19034SOL    HW158543   7.642   1.281   1.463 -0.0906 -0.2268 -0.2439
19034SOL    HW258544   7.519   1.240   1.543 -0.5600 -0.2382 -0.9603
19035SOL     OW58545   2.443   6.304  11.077  0.0202  0.5218 -0.5246
19035SOL    HW158546   2.502   6.378  11.089 -0.4677  1.2081 -2.0154
19035SOL    HW258547   2.500   6.227  11.079  0.7859  1.0731 -0.6245
19036SOL     OW58548   5.633   4.951   3.235 -0.2137  0.5898  0.3025
19036SOL    HW158549   5.614   4.923   3.324 -0.1270 -1.4028 -0.2564
19036SOL    HW258550   5.707   4.896   3.208 -0.9469  0.3650 -1.3706
19037SOL     OW58551   5.544   7.955   5.369 -0.0982  0.1246  0.5390
19037SOL    HW158552   5.535   7.978   5.461  2.9252 -0.6071  1.1036
19037SOL    HW258553   5.574   7.864   5.370 -2.1273 -0.6707 -1.3036
19038SOL     OW58554   7.245   4.541   1.985  0.3748 -0.0349 -0.2349
19038SOL    HW158555   7.230   4.622   2.032 -0.3525  0.1578 -0.7718
19038SOL    HW258556   7.186   4.477   2.026 -0.1117  0.0827 -0.7286
19039SOL     OW58557   0.280   7.825  11.984  0.1503  0.4264 -0.4990
19039SOL    HW158558   0.190   7.825  11.951  0.9156  0.8771 -2.7671
19039SOL    HW258559   0.330   7.779  11.917  1.8490  1.3909  0.0527
19040SOL     OW58560   1.579   4.574   1.993 -0.4533 -0.0827  0.5645
19040SOL    HW158561   1.609   4.647   1.938 -0.4630 -0.4729  0.0327
19040SOL    HW258562   1.648   4.509   1.987 -1.3942 -1.0099 -0.7091
19041SOL     OW58563   6.200   4.570   1.989 -0.0943  0.0124  0.0801
19041SOL    HW158564   6.282   4.571   2.039 -1.1316 -0.6742  1.8775
19041SOL    HW258565   6.187   4.661   1.963  1.1234  0.1614 -0.0571
19042SOL     OW58566   4.723   7.446   4.176  0.0719 -0.0435 -0.0354
19042SOL    HW158567   4.712   7.538   4.200 -1.0642 -0.1371 -0.1555
19042SOL    HW258568   4.796   7.416   4.229 -0.1725  0.6699  0.7208
19043SOL     OW58569   4.772   0.675   6.706 -0.0497 -0.0762  0.1979
19043SOL    HW158570   4.839   0.671   6.637 -0.5119  0.1994 -0.2711
19043SOL    HW258571   4.792   0.755   6.754 -0.8226  0.7257 -0.7646
19044SOL     OW58572   4.973   7.598   6.229  0.0572 -0.6145  0.1170
19044SOL    HW158573   4.991   7.622   6.320  2.5816  0.2821 -0.5557
19044SOL    HW258574   5.023   7.518   6.215 -0.2911 -0.7300 -0.4906
19045SOL     OW58575   7.542   6.349   6.578  0.8807 -0.3356 -0.2188
19045SOL    HW158576   7.601   6.425   6.581  1.8498 -1.0204 -1.3434
19045SOL    HW258577   7.566   6.297   6.654 -0.6149  1.0158  1.2849
19046SOL     OW58578   1.289   5.322   4.044  0.1629 -0.2779 -0.0428
19046SOL    HW158579   1.378   5.359   4.039  0.0042  0.0700 -0.3371
19046SOL    HW258580   1.234   5.395   4.072 -0.0161 -0.5233  0.2489
19047SOL     OW58581   0.864   3.950   4.243 -0.4483 -0.0150 -0.6501
19047SOL    HW158582   0.799   4.006   4.200  0.2137 -0.0789 -1.7593
19047SOL    HW258583   0.816   3.911   4.316 -0.8474  2.1788  0.3266
19048SOL     OW58584   3.119   7.672   0.535 -0.1719 -0.3471  0.1428
19048SOL    HW158585   3.185   7.665   0.467 -1.1738  0.4331 -0.9531
19048SOL    HW258586   3.036   7.658   0.490 -0.8162 -0.4901  1.3338
19049SOL     OW58587   6.145   4.457   8.573  0.1048  0.6256  0.3694
19049SOL    HW158588   6.124   4.398   8.500  0.4870  2.1158 -0.9933
19049SOL    HW258589   6.223   4.504   8.544 -0.7620  2.5037  0.9746
19050SOL     OW58590   4.509   2.018   4.109 -0.0919 -0.1479 -0.1349
19050SOL    HW158591   4.420   2.045   4.132 -0.5153 -0.9247 -0.7868
19050SOL    HW258592   4.538   2.082   4.043  0.4178  0.9796  1.1353
19051SOL     OW58593   4.291   5.388  10.288 -0.3534 -0.1433 -0.7075
19051SOL    HW158594   4.250   5.307  10.257 -0.5001 -0.5229  0.4382
19051SOL    HW258595   4.237   5.458  10.250 -1.1301 -0.6137 -0.4830
19052SOL     OW58596   4.627   6.889  10.523 -0.2127  0.7779 -0.3055
19052SOL    HW158597   4.668   6.818  10.474  2.0681  2.2075 -0.5953
19052SOL    HW258598   4.602   6.953  10.456 -2.1492  0.3678 -0.0380
19053SOL     OW58599   7.497   7.840   9.665 -0.5163 -0.3932  0.1273
19053SOL    HW158600   7.569   7.781   9.689 -0.6707 -0.8313 -0.4428
19053SOL    HW258601   7.420   7.802   9.709 -0.7836 -1.1491 -0.9512
19054SOL     OW58602   7.289   6.670   2.077 -0.0100 -0.1047 -0.6247
19054SOL    HW158603   7.306   6.689   2.169 -1.5550  1.5338 -0.6203
19054SOL    HW258604   7.347   6.596   2.057  0.0140 -0.8441  1.7780
19055SOL     OW58605   5.891   1.684  11.757  0.6923  0.1278 -0.5574
19055SOL    HW158606   5.955   1.755  11.756  0.4526  0.3590  0.2006
19055SOL    HW258607   5.937   1.610  11.717  0.7677  0.8519 -1.8521
19056SOL     OW58608   7.862   6.722   3.048 -0.1833 -0.4386  0.0987
19056SOL    HW158609   7.806   6.795   3.077 -0.0804  0.2498 -1.3361
19056SOL    HW258610   7.812   6.644   3.071 -1.2557  0.1420 -0.1735
19057SOL     OW58611   4.147   7.027   9.291 -0.0675  0.3342  0.2034
19057SOL    HW158612   4.202   7.077   9.351  3.1634 -0.6650 -1.7036
19057SOL    HW258613   4.190   7.036   9.205 -1.7374 -2.1995 -1.0335
19058SOL     OW58614   3.273   6.598   8.397 -0.0527  0.1770 -0.2331
19058SOL    HW158615   3.330   6.531   8.434  0.1516  1.8633  2.8624
19058SOL    HW258616   3.328   6.675   8.387 -1.3419  1.3499  1.2078
19059SOL     OW58617   7.353   2.561   2.182  0.6991 -0.1243 -0.6314
19059SOL    HW158618   7.431   2.528   2.228  1.9522 -0.0903 -2.6093
19059SOL    HW258619   7.313   2.622   2.243  0.7503 -2.0260  1.4422
19060SOL     OW58620   5.943   3.740   2.202  0.1296  0.5625  0.0000
19060SOL    HW158621   5.948   3.699   2.116  0.3592 -0.0992  0.3234
19060SOL    HW258622   5.861   3.791   2.200 -0.8310 -0.9141  0.0225
19061SOL     OW58623   2.035   4.942  11.399 -0.0941  0.4519  0.1011
19061SOL    HW158624   2.114   4.915  11.445  0.1217  0.5818 -0.1931
19061SOL    HW258625   2.042   5.037  11.391 -0.1176  0.4268 -0.2244
19062SOL     OW58626   4.639   3.575   5.560 -0.0244  0.0895  0.1310
19062SOL    HW158627   4.552   3.613   5.552  0.2347  0.5313 -0.6999
19062SOL    HW258628   4.698   3.641   5.525  0.3075 -1.5684 -2.7847
19063SOL     OW58629   5.875   2.226  11.362 -0.1668 -0.3238 -0.5760
19063SOL    HW158630   5.934   2.157  11.331  0.6143  0.3437 -0.6237
19063SOL    HW258631   5.903   2.242  11.453 -0.2941 -0.0185 -0.5912
19064SOL     OW58632   2.079   6.733   4.079  0.5803  0.9742  0.5606
19064SOL    HW158633   2.055   6.792   4.151 -2.0073 -0.1983  0.7620
19064SOL    HW258634   2.023   6.762   4.006 -0.2218 -0.7328  0.4620
19065SOL     OW58635   7.764   3.438   0.043 -0.5102 -0.6422  1.0349
19065SOL    HW158636   7.751   3.531   0.059 -0.1503 -0.5707  0.9153
19065SOL    HW258637   7.836   3.433  -0.020 -2.5206 -0.8840 -1.4160
19066SOL     OW58638   6.831   7.045   2.616 -0.1888  0.0762  0.0817
19066SOL    HW158639   6.910   7.017   2.661  0.1483 -0.6630 -0.9533
19066SOL    HW258640   6.781   6.965   2.601  0.4942  0.0272 -2.3496
19067SOL     OW58641   0.027   1.624  11.276 -0.1192  0.8054  0.0707
19067SOL    HW158642   0.037   1.596  11.367 -0.1837  0.1586 -0.1157
19067SOL    HW258643   0.066   1.552  11.225 -0.6837  0.8552 -0.4365
19068SOL     OW58644   3.102   5.495   5.929  0.5163  0.3190  0.0847
19068SOL    HW158645   3.035   5.524   5.990  1.1050  3.5426 -0.5866
19068SOL    HW258646   3.054   5.450   5.859 -0.5152 -0.3882  1.2249
19069SOL     OW58647   6.484   4.804   4.494 -0.4593 -0.3551  0.7861
19069SOL    HW158648   6.412   4.773   4.549  1.0187 -1.8716  1.9628
19069SOL    HW258649   6.510   4.727   4.443  0.2613  0.2103  0.2796
19070SOL     OW58650   5.029   6.996   8.059 -0.2741 -0.1000  0.0837
19070SOL    HW158651   4.962   7.015   7.994  0.7452 -0.7381 -1.1933
19070SOL    HW258652   5.111   6.995   8.010  0.4981 -0.8660  1.3308
19071SOL     OW58653   2.895   0.239  10.219 -0.2810 -0.2269 -0.0784
19071SOL    HW158654   2.833   0.272  10.153 -0.2752  1.5989  0.7823
19071SOL    HW258655   2.981   0.250  10.180 -0.3042  0.4321  0.0568
19072SOL     OW58656   3.337   5.857  10.200  0.1103 -0.0975 -0.2017
19072SOL    HW158657   3.334   5.950  10.224  1.4303  0.3561 -1.5572
19072SOL    HW258658   3.426   5.845  10.166 -0.6090 -1.3870 -1.7672
19073SOL     OW58659   4.239   2.447   4.009 -0.3219 -0.0946  0.0056
19073SOL    HW158660   4.200   2.366   3.977  0.5152 -0.6930  0.4622
19073SOL    HW258661   4.332   2.427   4.017 -0.4794 -0.0503  2.9247
19074SOL     OW58662   1.965   1.524  10.511  0.0947 -0.1923 -0.0770
19074SOL    HW158663   1.895   1.549  10.572 -0.5978  0.1653 -0.9775
19074SOL    HW258664   1.963   1.429  10.509 -0.2148 -0.1907  0.0847
19075SOL     OW58665   0.786   0.568  11.434  0.8899  0.2451 -0.5733
19075SOL    HW158666   0.871   0.552  11.475 -0.0579  0.6392  1.6855
19075SOL    HW258667   0.765   0.486  11.389  1.4573 -0.6444  0.7359
19076SOL     OW58668   0.973   3.311   7.063  0.4281  0.1209 -0.2084
19076SOL    HW158669   0.959   3.401   7.035 -2.1207 -0.3890 -0.7452
19076SOL    HW258670   0.919   3.258   7.005  1.2458 -1.7115  0.6030
19077SOL     OW58671   7.404   6.185   0.195  0.1671  0.3175 -0.3732
19077SOL    HW158672   7.492   6.192   0.158  0.7461 -0.4511  0.8089
19077SOL    HW258673   7.417   6.144   0.280 -1.4066 -0.3879 -0.4392
19078SOL     OW58674   5.860   0.659   9.145 -0.6500  0.1203  0.0000
19078SOL    HW158675   5.928   0.595   9.168  0.1468  1.0703  0.3364
19078SOL    HW258676   5.809   0.615   9.077  0.9692 -0.2173 -1.0498
19079SOL     OW58677   5.919   5.796   6.339  0.4746 -0.0185  0.0530
19079SOL    HW158678   5.993   5.820   6.284  0.3632 -2.7924 -1.4548
19079SOL    HW258679   5.945   5.715   6.382 -1.9923 -1.6848 -1.3466
19080SOL     OW58680   1.490   5.004   7.635  0.4709 -0.0299 -0.5463
19080SOL    HW158681   1.460   4.985   7.724 -0.4872 -2.9914 -1.3680
19080SOL    HW258682   1.415   5.044   7.592  0.4168 -0.0212 -0.4441
19081SOL     OW58683   0.057   7.609   9.020 -0.3998  0.4117 -0.0055
19081SOL    HW158684  -0.030   7.633   9.053  0.2862  1.7164  0.9879
19081SOL    HW258685   0.043   7.590   8.927 -1.8980 -0.4111  0.3527
19082SOL     OW58686   5.697   4.549   4.256  0.0862 -0.2141 -0.1501
19082SOL    HW158687   5.641   4.495   4.312  0.7584 -1.1892 -0.3895
19082SOL    HW258688   5.786   4.530   4.285  0.3067  2.2047  1.0104
19083SOL     OW58689   6.445   5.401  12.157  0.1258 -0.5996 -0.5172
19083SOL    HW158690   6.475   5.335  12.219 -0.9773 -2.0082 -1.3938
19083SOL    HW258691   6.350   5.404  12.170  0.1023  0.4115 -0.8787
19084SOL     OW58692   7.770   2.848  10.433  0.3270  0.2087  0.6160
19084SOL    HW158693   7.833   2.897  10.487 -1.2229  2.0272  0.8755
19084SOL    HW258694   7.715   2.915  10.394 -0.6299 -1.2713 -0.6788
19085SOL     OW58695   5.741   6.935   6.967  0.5571 -0.3652 -0.3646
19085SOL    HW158696   5.774   6.984   7.043  2.5215  0.5788 -1.7510
19085SOL    HW258697   5.739   6.844   6.997 -1.1776  0.2192  1.5991
19086SOL     OW58698   6.466   4.519   8.079 -0.4273 -0.1264  0.3483
19086SOL    HW158699   6.441   4.571   8.155  0.2288  1.2860 -0.3415
19086SOL    HW258700   6.511   4.443   8.115  0.0950  0.6396  1.3810
19087SOL     OW58701   3.128   6.622   9.310  0.1212  0.7767  0.0796
19087SOL    HW158702   3.127   6.717   9.302  1.6117  0.9777  1.7995
19087SOL    HW258703   3.220   6.598   9.300 -0.3414 -0.6135 -1.2153
19088SOL     OW58704   7.587   5.998   5.576 -0.4633  0.3511 -0.3035
19088SOL    HW158705   7.591   6.088   5.609  0.1163 -0.4008  1.8694
19088SOL    HW258706   7.494   5.978   5.571 -0.5865  0.8715 -0.1414
19089SOL     OW58707   0.789   0.666   4.631  0.2018  0.2965 -0.1754
19089SOL    HW158708   0.797   0.724   4.555  0.1166  2.1626  1.2010
19089SOL    HW258709   0.808   0.721   4.706 -1.2865 -1.1242  1.3140
19090SOL     OW58710   2.234   4.985   1.341  0.6251 -0.2846  0.0713
19090SOL    HW158711   2.259   5.068   1.381  0.6302 -0.7949  1.1499
19090SOL    HW258712   2.145   4.968   1.373  2.0440 -2.6972  3.2991
19091SOL     OW58713   7.141   1.819   0.110 -0.2124  0.3852  0.3467
19091SOL    HW158714   7.157   1.845   0.019  0.0034  1.4258  0.6629
19091SOL    HW258715   7.195   1.879   0.162 -0.1836 -0.3169  1.1558
19092SOL     OW58716   1.318   4.679   0.645  0.0253 -0.2867 -0.1917
19092SOL    HW158717   1.365   4.668   0.728  1.0044 -2.6317 -0.9703
19092SOL    HW258718   1.241   4.623   0.654 -1.2315  1.3771  0.0037
19093SOL     OW58719   0.730   5.595   0.459  0.3537  0.1634  0.2394
19093SOL    HW158720   0.673   5.527   0.423  0.6336  0.0018  0.1039
19093SOL    HW258721   0.769   5.636   0.382  2.9801 -1.8748  0.3678
19094SOL     OW58722   5.882   1.956  11.529 -0.1243  0.1182  0.4422
19094SOL    HW158723   5.895   2.046  11.500  0.0659 -0.0368  0.0518
19094SOL    HW258724   5.859   1.907  11.450 -1.3565  0.0355  0.8264
19095SOL     OW58725   2.539   5.560   1.899  0.0465 -0.0837  0.1184
19095SOL    HW158726   2.631   5.532   1.902  0.1874  0.3797  0.1857
19095SOL    HW258727   2.504   5.533   1.984  0.8012  1.9981  1.1514
19096SOL     OW58728   2.734   5.621   5.190 -0.2152 -0.1062  0.0540
19096SOL    HW158729   2.759   5.552   5.130 -3.0704 -0.1215 -1.3038
19096SOL    HW258730   2.746   5.702   5.141 -0.4833  0.0554  0.2481
19097SOL     OW58731   6.735   5.837   3.008 -0.1425 -0.4088  0.3187
19097SOL    HW158732   6.803   5.778   2.974 -1.7740 -2.6821  0.7162
19097SOL    HW258733   6.679   5.854   2.932  0.7988  1.4751 -0.0116
19098SOL     OW58734   3.817   5.428   0.386 -0.4259  0.1987  0.0657
19098SOL    HW158735   3.873   5.371   0.439 -2.1397 -0.6495  1.0525
19098SOL    HW258736   3.820   5.513   0.429  2.2892  1.0049 -1.5121
19099SOL     OW58737   5.915   5.559  11.384  0.1013  0.3386  0.2907
19099SOL    HW158738   5.831   5.605  11.387 -0.5365 -0.8321  2.0422
19099SOL    HW258739   5.968   5.601  11.451  0.3283  0.0048  0.3207
19100SOL     OW58740   6.357   7.421  10.871 -0.0939 -0.6242 -0.0811
19100SOL    HW158741   6.305   7.422  10.791  0.2839  0.5306 -0.3242
19100SOL    HW258742   6.326   7.344  10.919 -1.6503 -0.2605 -0.4630
19101SOL     OW58743   6.267   2.414   1.074 -0.1582 -0.3831  0.5933
19101SOL    HW158744   6.318   2.402   0.994 -0.8410  0.6668 -0.0285
19101SOL    HW258745   6.331   2.405   1.145  0.6773 -0.1963 -0.1172
19102SOL     OW58746   4.419   6.136   9.138  0.2858  0.5391 -0.3291
19102SOL    HW158747   4.508   6.172   9.138  0.1377  1.1080 -2.9296
19102SOL    HW258748   4.362   6.213   9.134 -0.2733  0.1459 -0.0369
19103SOL     OW58749   7.138   7.184   1.103  0.1208  0.3192  0.0363
19103SOL    HW158750   7.111   7.159   1.192 -0.3271  0.4186 -0.0683
19103SOL    HW258751   7.081   7.132   1.046 -1.1134  1.8521 -0.1873
19104SOL     OW58752   4.039   6.842   1.778 -0.2986 -0.4473  0.4124
19104SOL    HW158753   3.962   6.790   1.756 -1.0392  0.7983 -0.0381
19104SOL    HW258754   4.003   6.924   1.814  0.8295 -0.4284  1.5788
19105SOL     OW58755   5.749   6.675  11.710 -0.1620 -0.2258  0.7489
19105SOL    HW158756   5.770   6.766  11.690 -4.2526  0.8846  0.5429
19105SOL    HW258757   5.762   6.629  11.627  2.4399 -0.0546  0.9795
19106SOL     OW58758   2.422   6.029   5.669 -0.0284 -0.5482 -0.0500
19106SOL    HW158759   2.473   6.070   5.600  0.8309 -0.3580  0.6762
19106SOL    HW258760   2.481   5.963   5.706 -1.1868 -2.1118 -0.8497
19107SOL     OW58761   7.360   2.324   7.803  0.1597  0.2230  0.2495
19107SOL    HW158762   7.430   2.357   7.746  0.0878 -0.0542 -0.0015
19107SOL    HW258763   7.404   2.262   7.862 -0.1905 -1.5765 -1.2676
19108SOL     OW58764   7.268   3.451   8.216 -0.3433  0.1964 -0.3433
19108SOL    HW158765   7.297   3.533   8.176 -3.6598  1.7386  0.0043
19108SOL    HW258766   7.198   3.420   8.158 -0.7580 -1.0957  0.7853
19109SOL     OW58767   5.205   0.676  12.130  0.2002 -0.0657  0.0877
19109SOL    HW158768   5.244   0.598  12.171 -1.9698 -1.0621  0.3724
19109SOL    HW258769   5.218   0.662  12.036 -0.9738 -1.2843  0.0747
19110SOL     OW58770   1.373   4.987   9.287  0.5779  0.1292  0.0336
19110SOL    HW158771   1.297   5.013   9.235  1.0403  2.2647  0.3696
19110SOL    HW258772   1.349   4.900   9.320 -1.8794  0.8631  0.4040
19111SOL     OW58773   4.047   6.859   8.163  0.3775  0.2738 -0.6325
19111SOL    HW158774   4.036   6.943   8.118  0.9443  1.0590  0.6466
19111SOL    HW258775   4.075   6.799   8.094  1.6763  1.5477 -1.2864
19112SOL     OW58776   1.637   5.606  12.073  0.2290  0.3461 -0.3556
19112SOL    HW158777   1.612   5.530  12.124 -0.2210  0.0423 -1.0162
19112SOL    HW258778   1.732   5.614  12.087  0.4891 -1.0072 -1.1540
19113SOL     OW58779   3.640   6.903   2.559 -0.4518  0.3557 -0.1167
19113SOL    HW158780   3.547   6.899   2.539 -0.0356  0.9834 -2.6087
19113SOL    HW258781   3.661   6.997   2.555  0.2845  0.2173  0.3986
19114SOL     OW58782   7.592   6.255   6.330  0.3864 -0.3213  0.1816
19114SOL    HW158783   7.563   6.301   6.252 -0.9899 -1.0369  0.2386
19114SOL    HW258784   7.585   6.319   6.400 -0.4060 -0.2794  0.0694
19115SOL     OW58785   1.872   6.603   2.891 -0.1611  0.0612  0.4687
19115SOL    HW158786   1.836   6.533   2.836  0.8913 -0.8171  0.8590
19115SOL    HW258787   1.903   6.669   2.828 -0.1117 -0.3532  0.0493
19116SOL     OW58788   2.601   1.207   0.364 -0.1972 -0.3361 -0.8970
19116SOL    HW158789   2.582   1.220   0.457 -0.5706 -3.0810 -0.4881
19116SOL    HW258790   2.539   1.263   0.319 -0.2396  0.8000  0.4786
19117SOL     OW58791   2.654   0.551   7.027 -0.2141  0.3371  0.1207
19117SOL    HW158792   2.696   0.583   6.947 -0.8250 -1.7486 -1.0889
19117SOL    HW258793   2.712   0.482   7.059 -1.5214 -1.0260 -0.3282
19118SOL     OW58794   6.861   3.954   2.727 -0.3900  0.0638  0.7958
19118SOL    HW158795   6.801   3.964   2.653 -0.1781  0.4812  0.6764
19118SOL    HW258796   6.918   3.881   2.701 -1.1486 -0.6562  1.1240
19119SOL     OW58797   0.829   4.044   1.310  0.1760  0.6749 -0.4459
19119SOL    HW158798   0.792   3.997   1.235  1.7114 -1.2164 -0.1098
19119SOL    HW258799   0.923   4.044   1.294  0.4497  1.0726  1.0244
19120SOL     OW58800   5.250   0.218   8.125 -0.5265  0.3101  0.1575
19120SOL    HW158801   5.301   0.145   8.159  0.6061  0.6900 -0.6853
19120SOL    HW258802   5.300   0.296   8.147 -1.4950  0.8210  0.6367
19121SOL     OW58803   5.490   3.354   6.082  0.3125  0.3128 -0.3155
19121SOL    HW158804   5.508   3.275   6.133 -0.1240  0.7956  0.5841
19121SOL    HW258805   5.452   3.415   6.144  0.9468  1.3603 -0.9328
19122SOL     OW58806   3.990   0.252   1.329 -0.6373  0.2276  0.9692
19122SOL    HW158807   4.038   0.279   1.251  0.2219 -1.7008  0.7854
19122SOL    HW258808   3.902   0.290   1.316  0.0418  1.5923  0.0538
19123SOL     OW58809   0.277   6.521   7.076  0.0125 -0.4493  0.1961
19123SOL    HW158810   0.205   6.474   7.034 -2.0470  1.8938  0.8929
19123SOL    HW258811   0.235   6.587   7.130  2.7237  1.3261  0.3460
19124SOL     OW58812   0.447   5.251   8.854  0.0668 -0.6805  0.0337
19124SOL    HW158813   0.489   5.226   8.936  1.6862  1.2383 -0.1362
19124SOL    HW258814   0.382   5.317   8.879  0.9532  0.3273 -0.2321
19125SOL     OW58815   0.832   5.184   8.717 -0.3345 -0.4897  0.7859
19125SOL    HW158816   0.744   5.189   8.681 -0.1701 -2.3892  0.0331
19125SOL    HW258817   0.886   5.236   8.657 -0.6314 -0.8679  0.1935
19126SOL     OW58818   2.847   1.690   2.540  0.2217  0.3166  0.5801
19126SOL    HW158819   2.882   1.703   2.452 -0.6025  1.4908  0.3985
19126SOL    HW258820   2.759   1.656   2.526  0.3443 -0.1802  0.9763
19127SOL     OW58821   7.004   6.685   4.267 -0.1360  0.7188 -0.4323
19127SOL    HW158822   6.958   6.625   4.209 -1.2085  0.4683  0.6432
19127SOL    HW258823   7.013   6.766   4.215  1.5409 -0.3721 -1.9730
19128SOL     OW58824   0.257   5.203  11.009 -0.1664  0.2339 -0.5438
19128SOL    HW158825   0.181   5.258  10.993 -1.0315  0.0478  2.3029
19128SOL    HW258826   0.257   5.140  10.937 -0.7928  2.1506 -2.3277
19129SOL     OW58827   5.666   3.645   7.304 -0.3125  0.0392 -0.7074
19129SOL    HW158828   5.596   3.707   7.325 -0.6898 -0.6965  0.2964
19129SOL    HW258829   5.623   3.577   7.254 -0.7093 -1.2116  1.2136
19130SOL     OW58830   3.468   7.485   8.510  0.1636  0.4012 -0.4775
19130SOL    HW158831   3.476   7.533   8.428  0.3340  0.6595 -0.3136
19130SOL    HW258832   3.374   7.473   8.522  0.1011  0.9790 -0.3626
19131SOL     OW58833   6.035   1.329  10.310  0.5733  0.2350  0.6914
19131SOL    HW158834   6.104   1.393  10.329 -0.2090  0.6292  2.3002
19131SOL    HW258835   5.981   1.372  10.244 -0.6186  1.7906  2.5816
19132SOL     OW58836   5.351   1.483   7.982 -0.1464  0.5033 -0.6383
19132SOL    HW158837   5.324   1.391   7.975 -0.7235  0.7649 -2.2952
19132SOL    HW258838   5.320   1.511   8.068  0.7359 -1.0496  0.2439
19133SOL     OW58839   5.962   0.047   5.428  0.2690 -0.2735 -0.1154
19133SOL    HW158840   5.901   0.017   5.495  0.7298 -1.6321 -0.2841
19133SOL    HW258841   5.946   0.141   5.422  1.9718  0.4871  3.7798
19134SOL     OW58842   6.193   3.382   0.443  0.6918  0.5715 -0.1177
19134SOL    HW158843   6.221   3.291   0.427  1.6612  0.5831  1.3340
19134SOL    HW258844   6.127   3.399   0.375  1.2110 -0.8800 -1.0385
19135SOL     OW58845   5.274   7.222   2.938 -0.0159  0.3541 -0.0696
19135SOL    HW158846   5.352   7.276   2.953  0.1640  0.2149 -0.4668
19135SOL    HW258847   5.229   7.267   2.866 -1.4843  1.6858  1.6040
19136SOL     OW58848   2.687   0.369  10.086  0.5750 -0.2208  0.2434
19136SOL    HW158849   2.616   0.331  10.137 -0.7122  0.3234 -1.0644
19136SOL    HW258850   2.703   0.454  10.128 -0.3978  0.1776 -0.1524
19137SOL     OW58851   2.776   2.470  11.543  0.4647 -0.3825  0.1340
19137SOL    HW158852   2.800   2.508  11.458  1.4038 -0.1492  0.4832
19137SOL    HW258853   2.820   2.526  11.607 -2.2076  0.9515  0.9451
19138SOL     OW58854   2.528   4.557   1.954  0.2913  0.6775  0.1454
19138SOL    HW158855   2.552   4.477   2.001 -0.2545  0.6346  0.3581
19138SOL    HW258856   2.541   4.536   1.862 -0.2576  0.1934  0.1681
19139SOL     OW58857   3.965   7.516   6.942 -0.6254 -0.1491 -0.1211
19139SOL    HW158858   3.990   7.435   6.897 -1.4183  0.0601 -0.9717
19139SOL    HW258859   3.905   7.487   7.011 -0.5909 -0.3203 -0.1619
19140SOL     OW58860   6.047   0.580   6.039  0.0648 -0.5685  0.0103
19140SOL    HW158861   6.031   0.486   6.033  0.5269 -0.6157 -0.6473
19140SOL    HW258862   5.961   0.619   6.026  0.0035 -0.8865 -0.5994
19141SOL     OW58863   1.001   2.606   9.925 -0.2289  0.4150 -0.7154
19141SOL    HW158864   0.980   2.611   9.832 -1.3160 -1.6599 -0.6281
19141SOL    HW258865   1.031   2.517   9.939  1.0752  1.0254  0.7325
19142SOL     OW58866   3.910   7.067   1.835 -0.0172  0.7209  0.2703
19142SOL    HW158867   3.915   7.161   1.820 -0.6289  0.9521  1.3646
19142SOL    HW258868   3.816   7.047   1.833  0.1247  0.0942 -0.1981
19143SOL     OW58869   3.679   0.323   5.445  0.3073  0.8087  0.1977
19143SOL    HW158870   3.752   0.279   5.489  0.4324  1.9247  1.1419
19143SOL    HW258871   3.628   0.361   5.516 -1.3292 -0.1006 -0.4316
19144SOL     OW58872   1.738   4.782   2.277 -0.3533  0.1649 -1.2568
19144SOL    HW158873   1.806   4.725   2.240  0.8603  0.9790 -0.3639
19144SOL    HW258874   1.765   4.871   2.253  1.5451  0.9632  2.8656
19145SOL     OW58875   3.075   5.587  10.733  0.1083  0.5193 -0.1561
19145SOL    HW158876   3.082   5.530  10.809 -1.6502  0.6691  0.1394
19145SOL    HW258877   3.138   5.657  10.750 -0.1421  0.4620  1.0790
19146SOL     OW58878   1.478   6.191  12.001  0.5198  0.1090 -0.3262
19146SOL    HW158879   1.433   6.223  12.079  1.0198 -0.0116  0.0112
19146SOL    HW258880   1.564   6.231  12.004 -0.0697  1.6341 -1.8142
19147SOL     OW58881   1.228   6.687   9.217 -0.3075  0.7665  0.1717
19147SOL    HW158882   1.269   6.678   9.130  1.2166  2.5957  0.6464
19147SOL    HW258883   1.298   6.720   9.273 -1.6766  1.0637  1.7693
19148SOL     OW58884   4.122   0.139   9.379 -0.0262 -0.3012 -0.3878
19148SOL    HW158885   4.049   0.093   9.420  0.1475  0.6172  1.0239
19148SOL    HW258886   4.150   0.081   9.308 -1.9037 -0.8243 -0.7676
19149SOL     OW58887   7.237   3.340   6.597 -0.1187 -0.1660  0.2631
19149SOL    HW158888   7.234   3.385   6.512  0.4680  0.2990  0.4899
19149SOL    HW258889   7.325   3.355   6.630 -0.3997 -0.1875  1.0493
19150SOL     OW58890   2.265   5.118   9.974  0.4393  0.1648  0.0566
19150SOL    HW158891   2.194   5.082  10.026  1.9997 -1.5373  1.1398
19150SOL    HW258892   2.249   5.085   9.886 -0.4896  0.4093  0.1257
19151SOL     OW58893   7.860   2.470   0.634  0.0285  0.0332 -0.6128
19151SOL    HW158894   7.869   2.565   0.631 -1.1873  0.1910  0.1492
19151SOL    HW258895   7.862   2.443   0.542  0.3885  0.7861 -0.8359
19152SOL     OW58896   5.077   3.528   9.153  0.3711 -0.5364  0.3201
19152SOL    HW158897   5.017   3.485   9.091  1.8104 -1.4124 -0.5223
19152SOL    HW258898   5.164   3.512   9.117  1.2162 -0.4488  2.2080
19153SOL     OW58899   7.506   4.886   4.477  0.1633 -0.1397 -0.2627
19153SOL    HW158900   7.548   4.921   4.399 -2.1817 -1.0538 -2.0849
19153SOL    HW258901   7.442   4.953   4.501 -0.8506 -0.9154 -0.7064
19154SOL     OW58902   1.226   1.027   9.653 -0.1999  0.1574 -0.0421
19154SOL    HW158903   1.294   1.088   9.626 -1.4304  1.5256 -0.2059
19154SOL    HW258904   1.202   1.055   9.742 -2.0350  1.1299 -0.7877
19155SOL     OW58905   5.430   6.123   9.683 -0.3383  0.4446  0.3444
19155SOL    HW158906   5.347   6.169   9.680 -1.2357 -1.0164  1.4927
19155SOL    HW258907   5.445   6.093   9.593 -1.3013  0.2898  0.2324
19156SOL     OW58908   3.772   2.923   7.569 -0.3982 -0.4231  0.2217
19156SOL    HW158909   3.773   2.828   7.575 -0.9338 -0.3929  0.9635
19156SOL    HW258910   3.776   2.942   7.476 -0.7383 -1.1786  0.0519
19157SOL     OW58911   6.128   2.699   6.661 -0.4125  0.0464 -0.5822
19157SOL    HW158912   6.098   2.786   6.637 -1.0469  0.8912  2.8384
19157SOL    HW258913   6.177   2.712   6.742 -0.2486 -2.7575 -0.1406
19158SOL     OW58914   4.809   7.799  10.581 -0.5174 -0.2044  0.6453
19158SOL    HW158915   4.821   7.705  10.596 -0.3462 -0.2319  0.3344
19158SOL    HW258916   4.848   7.840  10.659  1.1788 -0.3133 -0.1044
19159SOL     OW58917   5.898   3.609   0.561 -0.5008 -0.0258  0.1495
19159SOL    HW158918   5.821   3.634   0.612 -0.7959 -0.7108  0.0451
19159SOL    HW258919   5.942   3.544   0.615  0.4090  0.8899  0.5377
19160SOL     OW58920   6.587   5.992   8.015 -0.5419  0.2809  0.0997
19160SOL    HW158921   6.555   6.057   8.078 -0.5358 -0.7556  1.1932
19160SOL    HW258922   6.580   6.037   7.930  0.3513  2.0471  0.9013
19161SOL     OW58923   2.286   1.434   7.455  0.0763 -0.6652 -0.4182
19161SOL    HW158924   2.281   1.344   7.485  0.5232 -0.8864 -1.0066
19161SOL    HW258925   2.378   1.448   7.434 -0.1717 -0.4487 -1.4526
19162SOL     OW58926   4.844   7.251   4.471  0.1225  0.0154 -0.2990
19162SOL    HW158927   4.845   7.323   4.534  0.5850  0.1751 -0.4872
19162SOL    HW258928   4.795   7.182   4.514  1.8374 -0.4968  0.9205
19163SOL     OW58929   6.715   1.104   8.211 -0.4769 -0.3955  0.3455
19163SOL    HW158930   6.654   1.139   8.145  0.1030 -1.8001 -0.9850
19163SOL    HW258931   6.721   1.011   8.190  1.2504 -0.4916  1.1825
19164SOL     OW58932   3.760   0.962  12.383  0.3012 -0.0210  0.5392
19164SOL    HW158933   3.791   1.052  12.381 -1.1741  0.5038 -1.0051
19164SOL    HW258934   3.833   0.912  12.418  1.8864  1.5097 -0.4241
19165SOL     OW58935   1.889   2.547   0.426  0.1085 -0.1410 -0.1699
19165SOL    HW158936   1.974   2.504   0.437  0.6992  0.5180 -1.7697
19165SOL    HW258937   1.908   2.640   0.439 -0.3654  0.0075 -0.5130
19166SOL     OW58938   6.282   1.927   7.762  0.3803 -0.0396  0.1302
19166SOL    HW158939   6.210   1.900   7.819  1.1012 -0.6705  0.7729
19166SOL    HW258940   6.344   1.854   7.766  0.8548  0.3011 -0.7623
19167SOL     OW58941   5.381   2.424   1.546 -0.3553 -0.3231  0.0707
19167SOL    HW158942   5.337   2.505   1.517 -0.0447 -0.0320  0.4010
19167SOL    HW258943   5.320   2.386   1.610 -0.8271 -0.7238 -0.6091
19168SOL     OW58944   4.589   5.552   0.871  0.0990 -0.3094  0.4993
19168SOL    HW158945   4.533   5.476   0.886 -1.6358  0.5488 -1.2784
19168SOL    HW258946   4.661   5.518   0.817  0.2680 -0.9986  1.1282
19169SOL     OW58947   4.088   5.085   4.453  0.0077 -0.2742  0.0514
19169SOL    HW158948   4.126   5.123   4.532  1.5876 -0.4279 -0.5998
19169SOL    HW258949   4.107   5.149   4.385  1.6712 -1.6431 -0.8368
19170SOL     OW58950   3.093   2.517   8.068 -0.0811 -0.6745 -0.5370
19170SOL    HW158951   3.188   2.503   8.076  0.1212  0.9447  0.3464
19170SOL    HW258952   3.085   2.604   8.030 -1.2379 -0.9742 -1.0132
19171SOL     OW58953   1.502   1.909   3.098  0.0071 -0.1034 -0.2190
19171SOL    HW158954   1.495   1.985   3.155 -1.1852 -0.6792  0.4415
19171SOL    HW258955   1.412   1.881   3.084  0.2545  0.0521 -2.4701
19172SOL     OW58956   6.185   4.129   8.788  0.7352  0.4549  0.3307
19172SOL    HW158957   6.118   4.082   8.739  1.5877 -0.9260  0.4375
19172SOL    HW258958   6.178   4.094   8.877  1.5141  0.3810  0.3696
19173SOL     OW58959   6.789   0.738   5.352  0.4589  0.3508 -0.1204
19173SOL    HW158960   6.743   0.671   5.403 -0.1755  0.1289 -0.9603
19173SOL    HW258961   6.869   0.755   5.402 -0.8487  1.2903  1.7966
19174SOL     OW58962   2.387   3.795   8.677 -0.1365 -0.3694 -0.0996
19174SOL    HW158963   2.426   3.735   8.741 -1.1132 -0.8006  0.1147
19174SOL    HW258964   2.316   3.744   8.638 -1.0520  0.6745  0.1570
19175SOL     OW58965   2.445   4.262   5.628  0.1974  0.6153  0.5414
19175SOL    HW158966   2.404   4.212   5.557 -1.0113  0.9349  0.9903
19175SOL    HW258967   2.372   4.306   5.672  0.8173 -0.2042  2.4846
19176SOL     OW58968   4.569   7.716   4.286  0.2955 -0.7602 -0.1153
19176SOL    HW158969   4.644   7.775   4.275 -2.3444  3.0239  0.2454
19176SOL    HW258970   4.550   7.718   4.380 -2.1259  1.1460 -0.5362
19177SOL     OW58971   1.944   7.930   5.326 -0.2635 -0.3244 -0.5514
19177SOL    HW158972   1.980   7.885   5.402  1.1536 -1.6880 -1.9549
19177SOL    HW258973   2.016   7.933   5.263 -0.4206  3.4518 -0.8079
19178SOL     OW58974   6.836   6.439   4.215 -0.0199 -0.1186 -0.5138
19178SOL    HW158975   6.844   6.375   4.144 -1.4287 -0.6481 -0.2425
19178SOL    HW258976   6.888   6.401   4.286 -0.7047 -0.9020 -0.4115
19179SOL     OW58977   1.754   5.079   7.597  0.7616  0.1085  0.2138
19179SOL    HW158978   1.804   5.006   7.559 -0.4771 -0.1427 -1.0255
19179SOL    HW258979   1.667   5.043   7.613  0.2529  1.2001 -0.0214
19180SOL     OW58980   1.410   3.810   0.409  0.0873  0.4512 -0.4129
19180SOL    HW158981   1.357   3.761   0.346 -0.8683  0.8353  0.0690
19180SOL    HW258982   1.474   3.747   0.441  0.4514  0.1991 -1.6090
19181SOL     OW58983   1.635   2.805  10.038  0.5038  0.5554 -0.1228
19181SOL    HW158984   1.659   2.860   9.963 -0.1266  2.0048  0.7040
19181SOL    HW258985   1.565   2.853  10.082 -0.0175 -0.8848  0.6905
19182SOL     OW58986   7.917   4.867   5.515 -0.0100 -0.6648  0.0605
19182SOL    HW158987   7.862   4.944   5.501 -0.2272 -0.6412  0.9647
19182SOL    HW258988   7.929   4.863   5.610  1.1301 -0.9606 -0.0766
19183SOL     OW58989   6.964   2.686   2.655  0.4603  0.1491 -0.3602
19183SOL    HW158990   6.925   2.730   2.730 -0.1897  0.1167 -0.6739
19183SOL    HW258991   7.027   2.625   2.693 -0.5961 -0.6012  0.2148
19184SOL     OW58992   7.935   0.894   3.615  0.1279  0.1055 -0.0854
19184SOL    HW158993   7.851   0.896   3.570  0.1138  0.4084 -0.0501
19184SOL    HW258994   7.922   0.948   3.693  0.6194  0.9322 -0.5545
19185SOL     OW58995   5.513   2.601   9.207  0.3069 -0.6200  0.1618
19185SOL    HW158996   5.552   2.683   9.178  2.5663 -1.5793  0.2775
19185SOL    HW258997   5.479   2.621   9.294 -1.9871  0.9407 -0.9928
19186SOL     OW58998   3.056   7.453   4.357  0.0489 -0.5176 -0.8599
19186SOL    HW158999   3.095   7.444   4.270  0.9459  0.1036 -0.5327
19186SOL    HW259000   3.128   7.483   4.413 -0.9991  1.1308 -0.3286
19187SOL     OW59001   3.808   3.588   6.934 -0.4184 -0.6200  0.7437
19187SOL    HW159002   3.718   3.558   6.952 -1.8981  1.8587 -1.7697
19187SOL    HW259003   3.828   3.552   6.848  0.1799  0.5115  0.3977
19188SOL     OW59004   6.547   0.254   7.767  0.0669  0.5154 -0.3381
19188SOL    HW159005   6.511   0.171   7.799 -0.1952  1.3031  1.5233
19188SOL    HW259006   6.471   0.301   7.732 -0.1203  0.7400  0.3593
19189SOL     OW59007   7.431   2.136  10.015  0.2077  0.3348  0.1631
19189SOL    HW159008   7.420   2.061   9.957  1.5820 -0.1335  0.4680
19189SOL    HW259009   7.514   2.176   9.989 -0.6405  1.9577 -0.1947
19190SOL     OW59010   7.167   7.118  10.463 -0.1493 -0.2339 -0.5878
19190SOL    HW159011   7.118   7.129  10.544  1.1664 -1.1912  0.3780
19190SOL    HW259012   7.258   7.133  10.487  0.1947  0.2605 -2.0672
19191SOL     OW59013   1.586   6.988  12.183 -0.1031 -0.1101  0.1626
19191SOL    HW159014   1.615   6.904  12.148 -2.4319 -0.9597  0.0999
19191SOL    HW259015   1.546   7.032  12.108 -0.7804  0.1428  0.6626
19192SOL     OW59016   5.769   4.896  11.823  0.1513 -0.2529 -0.0108
19192SOL    HW159017   5.706   4.950  11.872 -1.4524 -2.0186 -0.0166
19192SOL    HW259018   5.799   4.953  11.752  2.6718  2.4518  2.9250
19193SOL     OW59019   2.918   6.994   3.825  0.1465 -0.0932  0.5522
19193SOL    HW159020   2.935   6.996   3.730  0.5424  0.1120  0.6249
19193SOL    HW259021   2.963   7.071   3.859  0.9331 -0.7630  1.0552
19194SOL     OW59022   2.745   1.789   3.911 -0.6082 -0.9684  0.1134
19194SOL    HW159023   2.801   1.820   3.982  1.1110 -2.5783 -0.4579
19194SOL    HW259024   2.667   1.755   3.955  0.1614 -1.3970  1.1984
19195SOL     OW59025   4.889   3.563   0.841 -0.2507  1.0359  0.7709
19195SOL    HW159026   4.922   3.536   0.926 -1.9114 -1.0315  0.8612
19195SOL    HW259027   4.949   3.524   0.778 -0.5355  0.2351  0.9821
19196SOL     OW59028   0.219   4.872   1.229  0.7592  0.8871  0.1737
19196SOL    HW159029   0.261   4.951   1.195  1.4289  0.4832  0.0563
19196SOL    HW259030   0.205   4.890   1.322  1.0581  1.0872  0.1809
19197SOL     OW59031   3.790   2.156   8.247 -0.0522  0.1993 -0.1171
19197SOL    HW159032   3.714   2.208   8.272 -0.5455  0.0949 -1.3392
19197SOL    HW259033   3.777   2.071   8.289 -0.0142  0.5574  0.6282
19198SOL     OW59034   1.399   2.675   9.125 -0.0327  0.1670  0.3884
19198SOL    HW159035   1.459   2.676   9.050 -0.0328  1.6056  0.3893
19198SOL    HW259036   1.321   2.720   9.094 -0.0660  0.7051  1.2263
19199SOL     OW59037   4.122   7.012   9.667 -1.3734 -0.1153 -0.5219
19199SOL    HW159038   4.066   7.064   9.610 -1.6093 -1.1448 -1.2517
19199SOL    HW259039   4.112   7.052   9.754 -0.6038  1.7967 -1.2661
19200SOL     OW59040   5.851   1.046   1.675  0.2167 -0.0118 -0.0370
19200SOL    HW159041   5.868   1.129   1.719  0.3813  0.7827 -1.5287
19200SOL    HW259042   5.822   1.071   1.587  2.2160 -1.5452 -1.2263
19201SOL     OW59043   5.996   6.785   5.518  0.6317  0.3486  0.7039
19201SOL    HW159044   5.937   6.859   5.504 -0.8442 -0.8032  0.5454
19201SOL    HW259045   5.980   6.759   5.609  0.6689 -0.1540  0.5695
19202SOL     OW59046   3.220   0.474  10.158  0.6061  0.2402  0.3943
19202SOL    HW159047   3.278   0.448  10.230  0.0684 -1.6335  0.1833
19202SOL    HW259048   3.212   0.396  10.104 -2.3541  0.3423  0.5665
19203SOL     OW59049   6.767   4.736   7.312 -0.0525 -0.0674  0.6299
19203SOL    HW159050   6.854   4.706   7.338  0.1963  0.2698  0.2078
19203SOL    HW259051   6.755   4.818   7.358  0.2730  0.3894 -0.0789
19204SOL     OW59052   4.987   6.099   1.055 -0.5765 -0.2738  1.0045
19204SOL    HW159053   5.019   6.022   1.008 -2.1409  0.6685 -1.8430
19204SOL    HW259054   5.059   6.162   1.048 -0.8117 -0.1149 -0.3234
19205SOL     OW59055   5.294   2.680   3.690 -0.5697 -0.0087  0.1369
19205SOL    HW159056   5.216   2.676   3.746 -0.7523  1.4049  0.0069
19205SOL    HW259057   5.354   2.739   3.736 -0.0455 -0.1553 -0.3476
19206SOL     OW59058   6.286   6.428   2.807 -0.1452  0.2603 -0.1741
19206SOL    HW159059   6.265   6.518   2.784  0.3021  0.1032 -1.2330
19206SOL    HW259060   6.381   6.425   2.812 -0.0809 -0.3924 -1.2746
19207SOL     OW59061   3.620   4.566   2.969 -0.1633  0.3014 -0.1864
19207SOL    HW159062   3.631   4.660   2.981  0.3152  0.0508  1.6998
19207SOL    HW259063   3.554   4.541   3.033 -1.4110 -0.4545 -1.6849
19208SOL     OW59064   1.643   1.312   9.875 -0.5088  0.5060 -0.5187
19208SOL    HW159065   1.620   1.378   9.941 -0.8478 -0.6029  0.5213
19208SOL    HW259066   1.570   1.250   9.877  1.0777 -1.4600  0.6533
19209SOL     OW59067   1.627   3.808   3.083  0.2725 -0.2152  0.3018
19209SOL    HW159068   1.612   3.732   3.139 -1.8535 -0.3901 -0.4423
19209SOL    HW259069   1.681   3.775   3.011  2.5460 -0.1138  1.8404
19210SOL     OW59070   6.138   7.413  11.988  0.7814 -0.1063  0.2147
19210SOL    HW159071   6.153   7.340  11.928 -0.5553 -0.3814  0.1828
19210SOL    HW259072   6.082   7.377  12.056 -2.2211  1.4738 -1.2026
19211SOL     OW59073   4.068   4.926   0.049  0.0672  0.3997 -0.7614
19211SOL    HW159074   4.122   4.997   0.085  0.0036  0.2357 -0.3375
19211SOL    HW259075   4.028   4.886   0.126 -0.0336  0.0130 -1.0158
19212SOL     OW59076   1.759   7.710   7.233  0.5036  0.1492 -0.5552
19212SOL    HW159077   1.783   7.677   7.146 -1.6136  1.3380 -1.6932
19212SOL    HW259078   1.681   7.763   7.217  1.7343  2.8679  1.6587
19213SOL     OW59079   6.684   2.727   9.115 -0.2884  0.1774  0.2706
19213SOL    HW159080   6.631   2.721   9.194 -1.2656 -0.9083 -0.4380
19213SOL    HW259081   6.626   2.697   9.044  0.8738  0.1413 -0.7067
19214SOL     OW59082   3.393   0.767  10.613  0.5427  0.1078  0.6848
19214SOL    HW159083   3.473   0.770  10.667  0.6415 -0.2582  0.5619
19214SOL    HW259084   3.349   0.850  10.632  1.0674  0.4159  0.5804
19215SOL     OW59085   3.689   2.020  10.257  0.3910 -0.0763 -0.5367
19215SOL    HW159086   3.660   2.054  10.341 -1.2294 -0.7647 -0.7897
19215SOL    HW259087   3.696   2.098  10.201  0.7183  0.2943  0.0183
19216SOL     OW59088   6.869   1.496  11.251  0.3226 -0.4778  0.0761
19216SOL    HW159089   6.850   1.490  11.345 -2.3304  0.4382 -0.3130
19216SOL    HW259090   6.879   1.590  11.235  0.7211 -0.6240 -0.5516
19217SOL     OW59091   1.823   2.983   7.148  0.7263  0.0930  0.2657
19217SOL    HW159092   1.786   3.068   7.123 -0.5901 -0.5565 -0.0884
19217SOL    HW259093   1.859   2.948   7.066  0.9107  0.1333  0.3291
19218SOL     OW59094   2.740   0.974   7.415  0.1351 -0.3491  0.2658
19218SOL    HW159095   2.777   0.935   7.494 -0.7746  0.6877  1.2392
19218SOL    HW259096   2.775   0.920   7.344  0.2208 -1.9085  1.4196
19219SOL     OW59097   1.685   1.546   8.970  0.0790  0.1024 -0.5540
19219SOL    HW159098   1.771   1.569   9.005  1.1581 -0.2726 -2.7420
19219SOL    HW259099   1.681   1.451   8.973 -0.6165  0.1403  0.2384
19220SOL     OW59100   5.144   5.849   1.256 -0.3365 -1.1864  0.5169
19220SOL    HW159101   5.132   5.896   1.174 -1.9665 -1.8138  0.3689
19220SOL    HW259102   5.172   5.762   1.231 -0.6504 -1.3200  0.6168
19221SOL     OW59103   2.252   7.322  10.334  0.4696  0.2533 -0.1596
19221SOL    HW159104   2.321   7.292  10.274  0.2733  0.5962 -0.5682
19221SOL    HW259105   2.178   7.265  10.315  1.3765 -1.8571  2.0834
19222SOL     OW59106   2.797   3.292   2.035 -0.7784  0.0398  0.0458
19222SOL    HW159107   2.752   3.374   2.053  1.3984  0.8197  2.5233
19222SOL    HW259108   2.840   3.269   2.117  3.5578 -0.4199 -2.0546
19223SOL     OW59109   5.595   4.568   8.662  0.1206 -0.5682 -0.0716
19223SOL    HW159110   5.511   4.572   8.617  0.3958  0.7679 -0.4969
19223SOL    HW259111   5.583   4.623   8.740  1.1894  1.2963 -1.1774
19224SOL     OW59112   7.327   0.946   3.293 -0.2658  0.1078 -0.1783
19224SOL    HW159113   7.235   0.958   3.316 -0.0240  0.6828  0.5410
19224SOL    HW259114   7.365   1.034   3.300  0.2597 -0.0587 -0.8171
19225SOL     OW59115   1.616   7.325  11.381  0.3184  0.5293  0.0522
19225SOL    HW159116   1.599   7.344  11.473 -3.7676  0.0397 -0.4000
19225SOL    HW259117   1.577   7.400  11.334  0.6222 -0.1386 -1.3156
19226SOL     OW59118   0.073   1.918   1.250  0.2913 -0.5535  0.1582
19226SOL    HW159119   0.086   1.836   1.202  0.8070 -0.0816 -0.5336
19226SOL    HW259120   0.015   1.894   1.323 -1.0717 -1.1744 -1.0556
19227SOL     OW59121   2.753   7.108   4.897 -0.2210 -0.6453  0.4339
19227SOL    HW159122   2.682   7.166   4.869  0.4346 -0.1988 -0.3674
19227SOL    HW259123   2.761   7.123   4.991 -1.9609 -1.5823  0.7861
19228SOL     OW59124   1.057   3.390   7.875  0.3376 -0.1635 -0.3049
19228SOL    HW159125   1.059   3.295   7.884 -0.6750 -0.1953 -0.2731
19228SOL    HW259126   1.149   3.416   7.871  0.6781 -0.9712  1.4456
19229SOL     OW59127   5.064   1.106   6.096  0.6261  0.0075  0.3960
19229SOL    HW159128   4.985   1.075   6.053 -0.3441  0.9294  1.4361
19229SOL    HW259129   5.034   1.139   6.181  1.8651  1.7445  0.2329
19230SOL     OW59130   6.833   1.758   4.197  0.1418  0.2039  0.3749
19230SOL    HW159131   6.744   1.763   4.161 -0.0713 -0.0333  0.8567
19230SOL    HW259132   6.875   1.839   4.171  0.2462 -0.2921 -1.0868
19231SOL     OW59133   2.320   0.240   5.654 -0.5711  0.4384 -0.0569
19231SOL    HW159134   2.275   0.307   5.705  0.8049  1.9900 -0.8028
19231SOL    HW259135   2.359   0.182   5.720 -0.1200  1.5099  0.6437
19232SOL     OW59136   6.803   3.520   4.176 -0.3403  0.5663 -0.1507
19232SOL    HW159137   6.798   3.594   4.115  1.6734  1.8863  1.1454
19232SOL    HW259138   6.750   3.548   4.251  1.5802  1.4247  0.9587
19233SOL     OW59139   5.540   1.425   4.775  0.4853 -0.0945 -0.0746
19233SOL    HW159140   5.612   1.443   4.713  1.3293 -0.5032  0.7704
19233SOL    HW259141   5.580   1.434   4.861 -0.4026 -0.6681  0.4077
19234SOL     OW59142   1.687   3.271   2.096  0.4415 -0.3009  0.1037
19234SOL    HW159143   1.763   3.260   2.039  0.5582 -1.8533  0.5100
19234SOL    HW259144   1.724   3.270   2.185  0.2270  1.7783  0.2791
19235SOL     OW59145   3.016   0.467   9.235  0.4099 -0.4984  0.3426
19235SOL    HW159146   2.960   0.544   9.240  1.7184  0.6628 -1.5186
19235SOL    HW259147   3.053   0.458   9.323 -1.1215 -0.1309  1.0697
19236SOL     OW59148   1.507   7.912   2.182 -0.2553  0.3923 -0.3643
19236SOL    HW159149   1.508   7.894   2.088  0.4377  2.9888 -0.9376
19236SOL    HW259150   1.448   7.987   2.192  0.4271  0.7812  1.1116
19237SOL     OW59151   4.400   5.317   6.177 -0.4813 -0.3160 -0.1137
19237SOL    HW159152   4.461   5.264   6.126 -0.6658 -0.3290 -0.3207
19237SOL    HW259153   4.452   5.351   6.250 -0.7478 -2.2171  1.0468
19238SOL     OW59154   3.623   6.394   3.202  0.3984 -0.6789  0.1146
19238SOL    HW159155   3.705   6.396   3.251  0.6312 -0.9619 -0.2557
19238SOL    HW259156   3.651   6.387   3.110  0.0259  1.7473 -0.2501
19239SOL     OW59157   6.115   7.013   5.112 -0.0865  0.8260  0.3273
19239SOL    HW159158   6.126   6.941   5.174 -1.9426  0.6242  0.4578
19239SOL    HW259159   6.178   7.080   5.141  0.8678 -0.2697  0.8655
19240SOL     OW59160   0.258   1.347   4.325  0.2915  0.4893  0.0082
19240SOL    HW159161   0.228   1.435   4.348  1.3010  0.4408  1.6352
19240SOL    HW259162   0.178   1.294   4.323 -0.2888  1.3610 -0.7217
19241SOL     OW59163   1.111   2.346   7.634  0.1669  0.0501  0.1730
19241SOL    HW159164   1.028   2.369   7.678  0.3225 -0.8469  0.9683
19241SOL    HW259165   1.084   2.308   7.551 -0.2725 -0.9089  0.7324
19242SOL     OW59166   2.084   6.327  10.217 -0.4595  0.2381 -0.0455
19242SOL    HW159167   1.997   6.364  10.231 -0.8682 -0.5301 -0.4810
19242SOL    HW259168   2.068   6.239  10.182  0.4842  0.4184 -0.9917
19243SOL     OW59169   1.565   3.201   2.814 -0.1187 -0.3688 -0.2794
19243SOL    HW159170   1.486   3.201   2.868 -0.1125  0.6204 -0.2390
19243SOL    HW259171   1.595   3.292   2.817  0.7716 -0.6433 -0.6598
19244SOL     OW59172   3.191   0.030   1.544  0.6419 -0.0655  0.4328
19244SOL    HW159173   3.202   0.102   1.482  0.5408 -1.6239 -1.5058
19244SOL    HW259174   3.099   0.034   1.570 -0.0417 -0.9648 -1.6704
19245SOL     OW59175   4.484   5.317   8.715  0.1512 -0.2959  0.1740
19245SOL    HW159176   4.571   5.281   8.698 -0.1572 -0.0708 -2.3588
19245SOL    HW259177   4.480   5.396   8.661 -0.6128  1.4006  2.5397
19246SOL     OW59178   4.323   6.278   5.566  0.2516  1.0503  0.0918
19246SOL    HW159179   4.233   6.265   5.594  0.4386  1.2729  0.8370
19246SOL    HW259180   4.326   6.369   5.537 -0.3761  0.3248 -2.4275
19247SOL     OW59181   3.308   0.401   3.300  0.3521  0.1192  0.0341
19247SOL    HW159182   3.246   0.474   3.302 -0.0476 -0.2028 -0.1887
19247SOL    HW259183   3.293   0.354   3.382 -2.5523 -2.2249 -1.6380
19248SOL     OW59184   2.134   4.679   0.108 -0.1252  0.3185 -0.2596
19248SOL    HW159185   2.107   4.763   0.072  0.5658  0.9980  0.7430
19248SOL    HW259186   2.204   4.701   0.171  1.2815 -1.1468 -1.2184
19249SOL     OW59187   2.494   5.607   9.950 -0.1867  0.1237  0.3923
19249SOL    HW159188   2.422   5.558   9.910  0.5777  0.1915 -1.1313
19249SOL    HW259189   2.538   5.544  10.006 -2.1160  0.3890  2.3208
19250SOL     OW59190   6.455   1.953  10.229  0.5664 -0.4866 -0.0559
19250SOL    HW159191   6.433   2.006  10.153  1.7671 -0.4259 -0.3733
19250SOL    HW259192   6.550   1.949  10.229  0.5318 -3.6638 -0.7508
19251SOL     OW59193   1.844   0.927   8.867 -0.6849 -0.0074  0.2222
19251SOL    HW159194   1.798   0.997   8.913 -1.4652 -0.8888  0.8181
19251SOL    HW259195   1.777   0.884   8.815 -0.8350 -1.9499  1.8719
19252SOL     OW59196   6.574   2.331  10.273  0.1037  0.0646 -0.2955
19252SOL    HW159197   6.520   2.255  10.252  1.2953 -0.9456  0.1517
19252SOL    HW259198   6.514   2.393  10.315 -0.6011 -1.2723  0.7676
19253SOL     OW59199   2.249   1.970   5.685  0.3712  0.0441  0.1391
19253SOL    HW159200   2.335   1.966   5.726  0.6099  0.4729 -0.3083
19253SOL    HW259201   2.204   2.042   5.729  0.4708  0.2277 -0.0605
19254SOL     OW59202   7.758   1.174   3.444 -0.7999  0.1392  0.3372
19254SOL    HW159203   7.779   1.171   3.350  0.9649 -1.0254  0.7145
19254SOL    HW259204   7.754   1.267   3.464 -0.6121  0.4093 -0.7754
19255SOL     OW59205   0.844   1.975   2.866  0.1402  0.5036  0.4386
19255SOL    HW159206   0.859   1.935   2.780  0.7117 -2.4948  1.7799
19255SOL    HW259207   0.750   1.970   2.879  0.0112  1.2802 -0.1074
19256SOL     OW59208   2.560   1.406   8.296 -0.0414 -0.3230  0.6398
19256SOL    HW159209   2.504   1.330   8.311 -0.4557 -0.2554 -0.4438
19256SOL    HW259210   2.595   1.393   8.208 -0.0533  0.6943  0.4701
19257SOL     OW59211   4.087   5.547   2.417  0.2425 -0.7252  0.0910
19257SOL    HW159212   4.075   5.591   2.501  1.8638 -0.1118  0.0205
19257SOL    HW259213   4.117   5.459   2.440 -1.0608 -1.1809  0.1692
19258SOL     OW59214   6.904   1.235   9.877  0.5505  0.0071 -0.2817
19258SOL    HW159215   6.860   1.174   9.936 -1.2682  1.7068  0.2270
19258SOL    HW259216   6.833   1.282   9.833  1.8759  0.7772 -1.7144
19259SOL     OW59217   0.177   1.926   1.664  0.2894  0.5112 -0.0071
19259SOL    HW159218   0.091   1.918   1.705 -0.0992  1.9297 -0.4698
19259SOL    HW259219   0.192   1.841   1.623  0.6898 -0.9719  2.9321
19260SOL     OW59220   3.307   7.642  10.463 -0.1224 -0.5003  1.0413
19260SOL    HW159221   3.399   7.619  10.471 -0.1508 -2.7791 -2.7206
19260SOL    HW259222   3.307   7.732  10.430  0.8887 -1.0045 -0.4248
19261SOL     OW59223   5.261   1.207   7.179  0.3113 -0.2381 -0.7706
19261SOL    HW159224   5.337   1.177   7.230  1.3493  2.3972 -0.5668
19261SOL    HW259225   5.188   1.203   7.241  0.9378  0.0745  0.0164
19262SOL     OW59226   2.996   4.418   4.230 -0.4452 -0.2976  0.4145
19262SOL    HW159227   3.054   4.439   4.157 -1.5123  1.0920 -0.0913
19262SOL    HW259228   3.002   4.493   4.289  0.5587 -1.4917  1.9030
19263SOL     OW59229   2.068   4.153   4.823  0.5321  0.5237  0.4739
19263SOL    HW159230   2.138   4.122   4.765  0.6562 -1.7019  1.7445
19263SOL    HW259231   2.102   4.142   4.911 -1.6223 -1.2649  1.1647
19264SOL     OW59232   2.589   7.283   2.765 -0.3061  0.0236  0.1355
19264SOL    HW159233   2.665   7.235   2.734 -1.7164 -0.5557 -2.7361
19264SOL    HW259234   2.572   7.349   2.698 -0.5866  2.2322  2.2197
19265SOL     OW59235   4.318   0.938   8.788  0.1001 -0.0893 -0.3131
19265SOL    HW159236   4.351   0.988   8.863 -1.1932  1.9439 -1.0504
19265SOL    HW259237   4.251   0.881   8.825  0.7217 -0.4185  0.3356
19266SOL     OW59238   2.686   7.033   1.726 -0.7068  0.1508  0.3856
19266SOL    HW159239   2.749   7.032   1.655 -1.1660  0.9670 -0.0533
19266SOL    HW259240   2.733   7.072   1.800 -0.9388  1.5861 -0.1962
19267SOL     OW59241   4.556   7.563   7.589  0.1309  0.4946 -0.7777
19267SOL    HW159242   4.556   7.473   7.622 -1.2780  0.1689 -1.5636
19267SOL    HW259243   4.487   7.607   7.639 -0.4941  0.6037 -1.7167
19268SOL     OW59244   2.874   1.901  12.372  0.2890  0.5937  0.0241
19268SOL    HW159245   2.793   1.850  12.365  1.0645 -0.6761 -0.0647
19268SOL    HW259246   2.933   1.861  12.308  1.0226  1.4411  0.1472
19269SOL     OW59247   3.090   5.544  11.829 -0.3417  0.1393 -0.2213
19269SOL    HW159248   3.175   5.503  11.843 -1.8742 -2.9109  0.9041
19269SOL    HW259249   3.063   5.575  11.915 -1.7158 -1.9081  0.1629
19270SOL     OW59250   1.349   1.334   7.214 -0.2339 -0.4435  0.0819
19270SOL    HW159251   1.254   1.318   7.211 -0.3384 -0.1447  1.3231
19270SOL    HW259252   1.385   1.257   7.256 -0.2604  0.5925  2.1282
19271SOL     OW59253   7.274   5.349   7.409  0.2139  0.1138  0.3537
19271SOL    HW159254   7.230   5.278   7.364  2.1592 -0.2455 -1.1284
19271SOL    HW259255   7.208   5.418   7.416 -0.9137 -0.8171 -0.6958
19272SOL     OW59256   6.777   0.588   5.811  0.0463  0.3944 -0.0238
19272SOL    HW159257   6.852   0.599   5.870 -0.2788  1.0759  0.2777
19272SOL    HW259258   6.717   0.533   5.861  0.7053 -0.9054 -0.6192
19273SOL     OW59259   4.587   7.262   6.784 -0.0164  0.1450 -0.1651
19273SOL    HW159260   4.617   7.272   6.693 -3.1305 -0.7084 -1.4301
19273SOL    HW259261   4.614   7.173   6.807 -1.1613 -0.4818 -1.1357
19274SOL     OW59262   0.184   1.908   5.694  0.6797  0.3714  0.0404
19274SOL    HW159263   0.141   1.940   5.773  0.9630 -1.4933  1.0010
19274SOL    HW259264   0.274   1.940   5.702  0.6877  0.2610  0.4354
19275SOL     OW59265   2.542   1.934   7.963  0.7156  0.4314 -0.3425
19275SOL    HW159266   2.620   1.902   8.008 -0.2764 -0.9863  0.4297
19275SOL    HW259267   2.536   2.026   7.990  1.0939  0.0657  1.1005
19276SOL     OW59268   1.589   0.593   2.633  0.3247 -0.0251  0.2247
19276SOL    HW159269   1.518   0.643   2.593 -0.3558 -0.0657  1.3352
19276SOL    HW259270   1.628   0.543   2.560 -0.5242  0.3000 -0.4651
19277SOL     OW59271   0.980   2.964   4.374 -0.2354 -0.4905 -0.1919
19277SOL    HW159272   0.894   2.998   4.348 -1.3304 -3.6405 -1.2739
19277SOL    HW259273   0.983   2.974   4.469 -1.3818  0.5577 -0.2492
19278SOL     OW59274   1.427   0.168   2.578  0.4937  0.0964 -0.0248
19278SOL    HW159275   1.352   0.123   2.616 -0.1259 -0.3242 -1.6739
19278SOL    HW259276   1.393   0.255   2.556  0.5967  0.0336 -0.4299
19279SOL     OW59277   5.954   1.233   0.222 -0.4444 -0.1613  0.1781
19279SOL    HW159278   6.020   1.228   0.153  0.3557 -0.4897  0.9449
19279SOL    HW259279   5.939   1.327   0.234 -0.2191 -0.0893 -0.0884
19280SOL     OW59280   6.866   6.689   8.396  0.2001  1.0733 -0.2869
19280SOL    HW159281   6.837   6.608   8.354  1.8904  1.4563 -2.3602
19280SOL    HW259282   6.837   6.681   8.487 -2.1495 -0.5701 -1.0916
19281SOL     OW59283   4.252   6.406   3.583  0.2700  0.0183  0.1240
19281SOL    HW159284   4.239   6.485   3.635 -1.0576 -1.5538  2.3519
19281SOL    HW259285   4.345   6.408   3.560  0.6654  1.3565  1.6535
19282SOL     OW59286   0.680   6.988   3.790 -0.1982  0.1975 -0.3959
19282SOL    HW159287   0.609   7.038   3.833 -0.2148  0.0894 -0.2963
19282SOL    HW259288   0.712   6.929   3.859  0.2762  0.5431 -0.3150
19283SOL     OW59289   6.840   2.346   8.816 -0.0297  0.0171  0.1845
19283SOL    HW159290   6.799   2.341   8.730  0.1239 -1.8837  0.1869
19283SOL    HW259291   6.911   2.409   8.804  0.8853 -1.2428 -1.4985
19284SOL     OW59292   7.788   0.297   1.285  0.0553 -0.1555 -0.0043
19284SOL    HW159293   7.843   0.362   1.327 -0.1089 -0.8313  1.2882
19284SOL    HW259294   7.812   0.214   1.326 -1.5242 -0.5439  0.2030
19285SOL     OW59295   1.878   2.306   4.537  0.0253  0.2329  0.4129
19285SOL    HW159296   1.932   2.266   4.604 -1.6692 -1.9952  0.5684
19285SOL    HW259297   1.808   2.350   4.586 -0.4163 -0.1713  0.1505
19286SOL     OW59298   1.896   7.259  10.918  0.0161 -0.5179 -0.5325
19286SOL    HW159299   1.985   7.235  10.943  0.8184  2.6012  0.1120
19286SOL    HW259300   1.876   7.205  10.842  3.3735  0.2100 -2.1301
19287SOL     OW59301   1.080   6.698   4.454 -0.1444 -0.1366  0.1372
19287SOL    HW159302   1.126   6.615   4.447 -0.8959 -0.4682 -0.8982
19287SOL    HW259303   1.138   6.761   4.411 -0.5501 -0.5157 -0.9806
19288SOL     OW59304   1.217   3.971   7.577 -0.4624 -0.0355  0.2000
19288SOL    HW159305   1.135   4.017   7.559 -1.0635 -1.0264  0.2894
19288SOL    HW259306   1.284   4.021   7.531 -1.3918 -0.2500 -1.4640
19289SOL     OW59307   3.161   1.155   5.844 -0.1086  0.8105 -0.4354
19289SOL    HW159308   3.116   1.093   5.902  1.8866 -0.5338 -0.2146
19289SOL    HW259309   3.147   1.240   5.884 -0.1144  0.0948  1.1599
19290SOL     OW59310   7.311   0.140   5.268 -0.0801  0.0433  0.3489
19290SOL    HW159311   7.402   0.168   5.269  0.4510 -1.5805  0.6862
19290SOL    HW259312   7.294   0.117   5.177  0.2173 -0.7564  0.4907
19291SOL     OW59313   5.455   1.047  10.758 -0.2874  0.4961  0.0448
19291SOL    HW159314   5.434   1.081  10.845  0.8824  0.0066  0.5436
19291SOL    HW259315   5.547   1.021  10.764  0.3202  1.9921 -1.8390
19292SOL     OW59316   7.539   1.095   4.893 -1.1126  0.0604  0.3437
19292SOL    HW159317   7.459   1.125   4.937 -0.8467  0.2307  0.7284
19292SOL    HW259318   7.607   1.103   4.961 -0.6351  0.6105 -0.1833
19293SOL     OW59319   1.132   4.997   3.454 -0.7660 -0.4359 -0.0115
19293SOL    HW159320   1.100   4.910   3.432  0.5811 -1.4611  1.8002
19293SOL    HW259321   1.166   4.989   3.544  0.9812  1.4920 -0.4033
19294SOL     OW59322   1.396   4.991   1.806 -0.3565  0.0547 -0.4801
19294SOL    HW159323   1.424   4.921   1.747 -1.1853 -0.9275  0.2511
19294SOL    HW259324   1.353   5.055   1.749  0.2909 -0.0826 -1.1401
19295SOL     OW59325   6.970   0.483  10.115 -0.4069 -0.5859  0.0308
19295SOL    HW159326   6.925   0.457  10.034 -0.8390  1.0239 -0.2780
19295SOL    HW259327   7.063   0.480  10.093 -0.4995 -0.7349 -0.3450
19296SOL     OW59328   6.355   3.852  12.209 -1.0279  0.4504 -0.2897
19296SOL    HW159329   6.383   3.939  12.181  1.5800 -0.3401 -0.3888
19296SOL    HW259330   6.432   3.796  12.195 -1.6153 -1.2697  2.5000
19297SOL     OW59331   6.442   4.166   1.343 -0.1670 -0.6642 -0.2068
19297SOL    HW159332   6.487   4.198   1.421 -1.5496 -0.6059  0.5922
19297SOL    HW259333   6.382   4.099   1.375  0.3317 -1.7743 -1.4365
19298SOL     OW59334   4.192   5.151   3.236  0.3511 -0.1305  0.0387
19298SOL    HW159335   4.208   5.071   3.285  0.9215 -1.4103 -2.1093
19298SOL    HW259336   4.106   5.137   3.195  0.4130  0.3784 -0.2776
19299SOL     OW59337   7.405   3.146  10.913 -0.4632  0.5526 -0.4368
19299SOL    HW159338   7.406   3.094  10.832 -1.2257  0.6783 -0.5340
19299SOL    HW259339   7.485   3.198  10.909  0.1392 -0.3458 -0.5106
19300SOL     OW59340   3.514   4.330   8.760 -0.2418  0.3785  0.4355
19300SOL    HW159341   3.555   4.319   8.846 -3.3174  0.7359  2.1055
19300SOL    HW259342   3.519   4.424   8.743  2.8006  0.0483 -1.2456
19301SOL     OW59343   5.853   5.477   7.681 -0.0280  0.4351 -0.7844
19301SOL    HW159344   5.877   5.555   7.730 -3.5342  1.3374 -0.2266
19301SOL    HW259345   5.865   5.501   7.590  1.4852  0.6018 -0.5759
19302SOL     OW59346   0.879   1.659  12.233  0.4318  0.2442 -0.2702
19302SOL    HW159347   0.869   1.628  12.143  1.4047 -0.6096 -0.1025
19302SOL    HW259348   0.823   1.736  12.239  0.7766  0.6344 -1.7709
19303SOL     OW59349   1.033   3.446   9.194 -0.5890  0.4321 -0.2712
19303SOL    HW159350   1.027   3.355   9.164  0.1102  0.3793 -0.2700
19303SOL    HW259351   0.944   3.467   9.222 -0.5563 -0.5738  0.6666
19304SOL     OW59352   2.068   1.980   1.076 -0.1704  0.7616 -0.3706
19304SOL    HW159353   2.134   1.933   1.025 -1.6006 -0.0259 -1.5786
19304SOL    HW259354   2.067   1.937   1.161  2.3237  2.1487  0.4547
19305SOL     OW59355   2.977   0.600   6.436  0.5030 -0.2097 -0.0339
19305SOL    HW159356   2.894   0.566   6.469 -0.1182  1.1963 -0.1080
19305SOL    HW259357   3.017   0.642   6.512  0.7234 -0.0639 -0.2299
19306SOL     OW59358   5.159   1.539   5.075 -0.0352 -0.1294  0.8826
19306SOL    HW159359   5.133   1.449   5.093 -0.3905 -0.5844 -1.5346
19306SOL    HW259360   5.198   1.535   4.988  3.0831  1.5051  2.0646
19307SOL     OW59361   4.635   6.540   1.352  0.2201  0.1730 -0.4149
19307SOL    HW159362   4.569   6.472   1.341 -0.6864  0.7780  1.0103
19307SOL    HW259363   4.618   6.577   1.438 -0.1044  3.0471 -1.6094
19308SOL     OW59364   6.511   3.236   1.859  0.6632  0.1601  0.1394
19308SOL    HW159365   6.605   3.231   1.841  0.2893 -1.3667 -1.7569
19308SOL    HW259366   6.489   3.328   1.847  1.8290  0.4412  0.0206
19309SOL     OW59367   4.662   4.777   2.554  0.9462  0.2628 -0.6460
19309SOL    HW159368   4.654   4.711   2.484 -2.9250 -0.1377 -0.0467
19309SOL    HW259369   4.648   4.860   2.509 -2.9302 -0.0681 -0.4664
19310SOL     OW59370   5.380   0.363   5.808  0.1397 -0.0470 -0.0865
19310SOL    HW159371   5.314   0.320   5.862  0.0260  0.7010  0.3799
19310SOL    HW259372   5.361   0.456   5.817  1.4002  0.1939  0.2375
19311SOL     OW59373   1.728   3.024   2.666  0.0727 -0.1265  0.4263
19311SOL    HW159374   1.756   2.937   2.692 -0.1106 -0.7468 -1.3312
19311SOL    HW259375   1.683   3.059   2.743 -0.1851 -1.7249  1.0244
19312SOL     OW59376   4.601   7.182   2.514  0.4444 -0.4463 -0.0514
19312SOL    HW159377   4.636   7.159   2.600  1.1694  1.3778  0.1921
19312SOL    HW259378   4.524   7.236   2.532 -0.4344 -1.4861 -0.5800
19313SOL     OW59379   5.448   2.433  10.564  0.1222  0.5079  0.5213
19313SOL    HW159380   5.420   2.475  10.645 -1.1456  2.7730 -0.9601
19313SOL    HW259381   5.435   2.501  10.497  0.6317 -1.4177 -1.6414
19314SOL     OW59382   5.344   3.201   3.291 -0.1246 -0.3549 -0.2111
19314SOL    HW159383   5.266   3.229   3.339  0.5363  1.5608 -0.1600
19314SOL    HW259384   5.394   3.149   3.355 -0.2338  0.4223  0.5238
19315SOL     OW59385   5.335   5.282  10.484  0.1010 -0.0056 -0.3792
19315SOL    HW159386   5.416   5.231  10.476  0.1757  0.2712 -1.5911
19315SOL    HW259387   5.305   5.293  10.394  0.7256  3.0985 -0.3045
19316SOL     OW59388   4.614   0.385   6.323 -0.1012  0.3825 -0.0749
19316SOL    HW159389   4.523   0.371   6.296 -0.8334  2.8562  0.8244
19316SOL    HW259390   4.618   0.354   6.413 -0.0753  0.3824 -0.0761
19317SOL     OW59391   5.977   7.586   5.451 -0.1456 -0.4677 -0.3597
19317SOL    HW159392   6.067   7.616   5.462 -0.3943  1.0653 -2.0860
19317SOL    HW259393   5.929   7.626   5.524  0.2707  0.0146 -0.3469
19318SOL     OW59394   6.573   7.929   3.096  0.2740 -0.1982  0.2982
19318SOL    HW159395   6.531   7.845   3.076 -0.7379  0.1353  0.9164
19318SOL    HW259396   6.595   7.922   3.189  0.0828  0.2555  0.3791
19319SOL     OW59397   3.313   5.291   7.209 -0.0123 -0.3457  0.0978
19319SOL    HW159398   3.357   5.341   7.278  0.0372 -1.8627  1.2097
19319SOL    HW259399   3.371   5.297   7.134  0.2719  0.7610  0.3882
19320SOL     OW59400   6.322   0.918   3.134  0.4179 -0.2150 -0.6337
19320SOL    HW159401   6.244   0.973   3.125  0.9035  0.8180  0.9867
19320SOL    HW259402   6.301   0.858   3.206  0.8536 -0.3730 -0.6342
19321SOL     OW59403   6.913   0.899   0.177  0.2442 -0.3866  0.5055
19321SOL    HW159404   6.834   0.900   0.230  0.3593 -0.2604  0.6752
19321SOL    HW259405   6.980   0.861   0.234  1.1281  2.4359  1.5583
19322SOL     OW59406   3.943   6.678   7.418 -0.3532  0.4063 -0.4094
19322SOL    HW159407   3.879   6.711   7.354 -0.8603  0.2094 -0.0182
19322SOL    HW259408   3.897   6.685   7.503  0.1216  0.1953 -0.1323
19323SOL     OW59409   0.432   3.347   7.605 -0.3597 -0.0830  0.0250
19323SOL    HW159410   0.370   3.372   7.674  0.4534  2.1662  0.0193
19323SOL    HW259411   0.514   3.391   7.629  0.3510 -0.4512 -1.5887
19324SOL     OW59412   1.423   0.695   4.228  0.1815  0.0953  0.2492
19324SOL    HW159413   1.410   0.601   4.239  1.0648 -0.0094  0.5024
19324SOL    HW259414   1.513   0.710   4.258  1.1082  0.5669 -2.4771
19325SOL     OW59415   1.526   2.099   5.076 -0.3665  0.6704  0.3029
19325SOL    HW159416   1.479   2.174   5.040 -0.9923  0.1753  0.0735
19325SOL    HW259417   1.468   2.024   5.061  0.2012  0.1531  0.6215
19326SOL     OW59418   4.527   2.259   2.710 -0.0358  0.2052  0.8278
19326SOL    HW159419   4.609   2.299   2.680  0.3061 -0.4514  0.8709
19326SOL    HW259420   4.544   2.165   2.707 -0.5426  0.0835  1.5306
19327SOL     OW59421   2.322   5.936   2.848 -0.1386  0.1268 -0.3099
19327SOL    HW159422   2.287   6.017   2.886  0.4496 -0.1616  0.9107
19327SOL    HW259423   2.398   5.964   2.797 -1.1613  0.5675 -1.6581
19328SOL     OW59424   1.471   0.505   2.187  0.2022 -0.0390 -0.2510
19328SOL    HW159425   1.417   0.460   2.122  0.4441  1.2644 -1.3977
19328SOL    HW259426   1.540   0.443   2.209 -0.8293 -1.1206  0.0348
19329SOL     OW59427   5.006   7.106   3.021  0.6207  0.9361  0.2131
19329SOL    HW159428   5.026   7.071   3.107  0.9814 -1.2363 -0.6995
19329SOL    HW259429   5.088   7.099   2.972 -0.6931 -2.8975 -1.8616
19330SOL     OW59430   0.798   0.122  12.423 -0.3332 -0.6540 -0.1450
19330SOL    HW159431   0.811   0.029  12.407  1.1181 -0.0894 -2.9059
19330SOL    HW259432   0.849   0.140  12.502  1.0372 -1.8768 -0.7072
19331SOL     OW59433   7.013   7.719   6.670 -0.1971 -0.6307 -0.1308
19331SOL    HW159434   7.044   7.702   6.581 -0.2911 -2.6120  0.1498
19331SOL    HW259435   6.974   7.806   6.666  0.3484 -0.4197 -1.8730
19332SOL     OW59436   5.115   4.754   9.319 -0.2106  0.2788  0.2137
19332SOL    HW159437   5.062   4.813   9.372 -0.7819 -0.1888  0.1780
19332SOL    HW259438   5.138   4.805   9.241 -0.9182  0.3711  0.0612
19333SOL     OW59439   1.978   2.565   8.830  0.3631 -0.1403  0.1050
19333SOL    HW159440   2.002   2.573   8.737 -0.0234  0.8052  0.0693
19333SOL    HW259441   2.009   2.647   8.869  0.2212 -0.3905  0.7409
19334SOL     OW59442   0.889   5.422   4.546  0.1046 -0.2453  0.4041
19334SOL    HW159443   0.883   5.498   4.488 -1.4991  0.1652  1.0629
19334SOL    HW259444   0.891   5.347   4.486  0.1070  0.2459 -0.2184
19335SOL     OW59445   6.901   5.459   4.991 -0.6303 -0.0980 -0.5255
19335SOL    HW159446   6.872   5.531   5.047 -0.1244  0.0856 -0.4925
19335SOL    HW259447   6.995   5.472   4.981 -0.2434 -1.6219  0.7329
19336SOL     OW59448   4.956   4.419   4.331 -0.4973  0.0917 -0.3713
19336SOL    HW159449   5.037   4.462   4.357  0.2644  0.1025 -2.5868
19336SOL    HW259450   4.941   4.352   4.398  0.1502  1.4838  1.2377
19337SOL     OW59451   7.428   4.176   5.859 -0.3834 -0.2273 -0.4272
19337SOL    HW159452   7.471   4.111   5.915 -0.7690  0.2685  0.4706
19337SOL    HW259453   7.431   4.257   5.910 -1.0340  0.1621 -0.9926
19338SOL     OW59454   2.269   2.043   2.875 -0.5972 -0.2391  0.3688
19338SOL    HW159455   2.253   1.984   2.949  0.2804  0.1336  0.8671
19338SOL    HW259456   2.270   2.130   2.913  1.9295 -0.1772  0.3047
19339SOL     OW59457   0.729   3.400   2.828  0.3284  0.3543 -0.0778
19339SOL    HW159458   0.805   3.408   2.885  0.9914  0.3624 -0.9359
19339SOL    HW259459   0.709   3.491   2.803 -0.3094  0.4033  0.5649
19340SOL     OW59460   3.791   4.099   6.010 -0.0675 -0.2917 -0.2881
19340SOL    HW159461   3.749   4.074   6.093 -0.6426  1.7044  0.0738
19340SOL    HW259462   3.797   4.194   6.014  1.4151 -0.2792 -1.8477
19341SOL     OW59463   6.738   0.318   5.655  0.2209 -0.2398 -0.3508
19341SOL    HW159464   6.676   0.376   5.700  0.2071  0.2436 -0.9795
19341SOL    HW259465   6.806   0.376   5.622  1.9043 -0.9118  1.6691
19342SOL     OW59466   1.657   7.287   7.901 -0.2824 -0.0936 -0.2497
19342SOL    HW159467   1.668   7.284   7.996  0.5513 -1.9516 -0.3509
19342SOL    HW259468   1.575   7.240   7.886 -0.7009  0.6812 -0.4328
19343SOL     OW59469   6.194   7.040  11.402 -0.0677 -0.0533 -0.1443
19343SOL    HW159470   6.241   7.020  11.321  0.4520 -0.6345  0.2864
19343SOL    HW259471   6.104   7.053  11.374  0.3746  1.3424 -1.0189
19344SOL     OW59472   3.245   2.006   5.139 -1.2342 -0.3697 -0.0990
19344SOL    HW159473   3.230   2.068   5.210  0.0683 -0.5155  0.3377
19344SOL    HW259474   3.333   1.972   5.156 -0.0628  1.0161 -2.8332
19345SOL     OW59475   5.780   3.181   8.341 -0.8964  0.3980  0.1948
19345SOL    HW159476   5.793   3.200   8.434  0.0596  0.1244  0.1296
19345SOL    HW259477   5.705   3.121   8.339 -0.0741 -0.6897  0.9060
19346SOL     OW59478   4.009   2.044   7.529  0.0021  0.1221 -0.1094
19346SOL    HW159479   4.036   1.953   7.540  1.1670  0.4374 -0.2110
19346SOL    HW259480   3.935   2.055   7.589  1.1112 -0.3570  1.4027
19347SOL     OW59481   7.953   7.608   8.741  0.5546  0.7910  0.5757
19347SOL    HW159482   7.924   7.605   8.650  2.2112 -0.9780  0.0456
19347SOL    HW259483   8.006   7.529   8.752 -0.9571  0.0173  3.5602
19348SOL     OW59484   4.777   7.765   2.033  0.0821 -0.3272 -0.0931
19348SOL    HW159485   4.802   7.775   1.941  0.0413  1.3175  0.0507
19348SOL    HW259486   4.847   7.808   2.082 -0.3842 -0.3296  0.5899
19349SOL     OW59487   7.380   1.062   9.017  0.1973 -0.2029  0.7651
19349SOL    HW159488   7.446   0.992   9.020  0.2001 -0.4392 -1.9137
19349SOL    HW259489   7.430   1.141   8.998 -0.1766 -0.3658 -1.1779
19350SOL     OW59490   7.859   2.866   1.911 -0.0008 -0.2534  0.4794
19350SOL    HW159491   7.775   2.907   1.932  0.2817  0.0407  1.0364
19350SOL    HW259492   7.851   2.843   1.818 -0.1550  1.0676  0.1454
19351SOL     OW59493   6.326   4.766   3.844  0.0098 -0.5339  0.0076
19351SOL    HW159494   6.388   4.717   3.898 -0.2669 -0.5671  0.2980
19351SOL    HW259495   6.303   4.705   3.773  0.9738 -0.2093 -0.6015
19352SOL     OW59496   0.931   2.257   5.799  0.0701  0.0484 -0.2880
19352SOL    HW159497   0.996   2.213   5.745 -0.0544 -1.9773  1.1230
19352SOL    HW259498   0.861   2.193   5.811 -0.6309  0.9955  0.9847
19353SOL     OW59499   3.956   2.016   3.639  0.3474  0.2677  0.0215
19353SOL    HW159500   4.021   1.948   3.621 -0.4380 -1.0460  1.8355
19353SOL    HW259501   3.897   1.977   3.703 -0.1664  2.6641  1.1290
19354SOL     OW59502   3.546   1.519  11.544 -0.5130 -0.1049  0.2198
19354SOL    HW159503   3.616   1.485  11.488  0.5327  2.2586 -0.0311
19354SOL    HW259504   3.523   1.603  11.505 -2.3694 -0.0868  1.2523
19355SOL     OW59505   2.048   4.214   0.062  0.9088  0.1681  0.0245
19355SOL    HW159506   2.102   4.248  -0.009  0.5761  1.1279  0.2183
19355SOL    HW259507   1.996   4.289   0.091 -0.5430 -0.7173 -0.1713
19356SOL     OW59508   1.466   6.209   6.760  0.1166 -0.1516  0.4052
19356SOL    HW159509   1.393   6.268   6.781 -0.0170 -0.7520  1.7016
19356SOL    HW259510   1.528   6.222   6.832  1.6792  0.9007 -1.0489
19357SOL     OW59511   2.362   2.961   6.932 -0.0514 -0.2501 -0.8542
19357SOL    HW159512   2.318   3.021   6.991  2.0123  0.8251 -0.3089
19357SOL    HW259513   2.316   2.878   6.942 -1.3776  0.5991  0.2782
19358SOL     OW59514   6.839   2.445   4.689 -0.0463  0.3012 -0.1995
19358SOL    HW159515   6.756   2.457   4.734 -0.1238 -0.4776 -0.1206
19358SOL    HW259516   6.894   2.517   4.720 -0.4067  0.3148  0.4138
19359SOL     OW59517   7.766   3.384  10.287  0.2741  0.0450 -0.2965
19359SOL    HW159518   7.726   3.451  10.342  1.7924  1.2963 -0.6499
19359SOL    HW259519   7.729   3.399  10.200  2.2110  1.9622 -0.8919
19360SOL     OW59520   5.751   2.792  10.200  0.2067 -0.3484 -0.4478
19360SOL    HW159521   5.836   2.749  10.201  0.1623 -0.4261 -0.1368
19360SOL    HW259522   5.704   2.756  10.275  0.0972  0.0914 -0.3002
19361SOL     OW59523   4.909   2.230   8.757 -0.4298 -0.5273 -0.0491
19361SOL    HW159524   4.829   2.283   8.756 -0.2727 -0.2793 -1.4222
19361SOL    HW259525   4.893   2.162   8.692 -0.4670 -1.9564  1.4005
19362SOL     OW59526   7.110   4.100   7.752  0.0434 -0.0952  0.1589
19362SOL    HW159527   7.072   4.135   7.672 -0.0478 -0.8189 -0.1236
19362SOL    HW259528   7.188   4.051   7.723  0.6249  0.5302  0.6241
19363SOL     OW59529   0.361   0.315  10.906  0.0383  0.2322  0.0273
19363SOL    HW159530   0.371   0.401  10.864  1.2923  0.3867  0.5774
19363SOL    HW259531   0.281   0.322  10.957 -0.0925  0.9389 -0.2587
19364SOL     OW59532   2.135   1.310   6.950  0.1411  0.4670  1.0295
19364SOL    HW159533   2.161   1.271   7.033  0.0672 -0.9259  0.4203
19364SOL    HW259534   2.041   1.329   6.960 -0.4133 -1.7123  0.5620
19365SOL     OW59535   0.622   5.009   5.052  0.2189  0.0443 -0.0812
19365SOL    HW159536   0.680   5.045   4.985 -1.5088 -0.8285 -2.2051
19365SOL    HW259537   0.675   5.007   5.131  1.6461  3.3945 -0.7674
19366SOL     OW59538   2.252   2.141   8.451  0.9438 -0.5796 -0.3989
19366SOL    HW159539   2.226   2.142   8.359 -0.2176 -1.3785 -0.1045
19366SOL    HW259540   2.191   2.202   8.494  2.5645  1.1187 -0.3936
19367SOL     OW59541   2.715   2.670   1.761  0.1169  0.5978 -0.2453
19367SOL    HW159542   2.793   2.719   1.788 -1.1405  1.9699  1.0550
19367SOL    HW259543   2.711   2.597   1.823  0.6243  0.2545 -0.6139
19368SOL     OW59544   5.108   0.921   3.670 -0.2027 -0.1767 -0.2322
19368SOL    HW159545   5.033   0.864   3.652 -1.1774  1.5556 -1.9422
19368SOL    HW259546   5.154   0.877   3.742 -2.6536 -1.4778  0.6714
19369SOL     OW59547   1.174   7.076   4.954  0.3998  0.2934 -0.6280
19369SOL    HW159548   1.167   7.020   5.031 -0.5460 -1.8954 -2.1982
19369SOL    HW259549   1.098   7.134   4.959 -0.3244 -0.6437 -0.4870
19370SOL     OW59550   1.506   3.262   2.520  0.2110  0.0447 -0.1465
19370SOL    HW159551   1.565   3.249   2.594 -0.3554 -1.5291  0.0632
19370SOL    HW259552   1.469   3.175   2.503 -3.9438  1.3146  1.2761
19371SOL     OW59553   2.021   3.660   1.498 -0.5401  0.2998 -0.5064
19371SOL    HW159554   1.927   3.643   1.501 -0.5350  0.0109 -1.6492
19371SOL    HW259555   2.028   3.755   1.504 -1.0119  0.4585 -2.1205
19372SOL     OW59556   5.317   1.485   8.254 -0.1957 -0.4863  0.5588
19372SOL    HW159557   5.401   1.440   8.252  1.7833  2.9006 -0.5438
19372SOL    HW259558   5.329   1.556   8.318 -0.4729  2.8149 -2.7385
19373SOL     OW59559   2.975   3.586  12.413 -0.1774  0.5560 -0.8923
19373SOL    HW159560   3.057   3.557  12.373 -0.1377  0.3707 -0.6816
19373SOL    HW259561   2.917   3.605  12.339  0.1856  1.0697 -1.0425
19374SOL     OW59562   2.194   0.214  10.081 -0.1403  0.0912  0.3705
19374SOL    HW159563   2.275   0.240  10.038 -0.0994  0.7040  0.8097
19374SOL    HW259564   2.130   0.279  10.054 -0.5233 -0.4718 -0.0863
19375SOL     OW59565   0.912   4.096   7.792  0.7002 -0.3416 -0.0333
19375SOL    HW159566   0.894   4.006   7.818  1.1230 -0.6586 -0.8131
19375SOL    HW259567   0.933   4.091   7.699  0.2941  0.6241 -0.1956
19376SOL     OW59568   2.062   4.449   1.276 -0.2955 -0.4014  0.1105
19376SOL    HW159569   1.997   4.516   1.298 -0.1342  0.1037 -0.8729
19376SOL    HW259570   2.135   4.465   1.337  0.2003  1.0355 -0.8065
19377SOL     OW59571   5.358   6.621   5.401  0.2384  0.0198  0.0589
19377SOL    HW159572   5.276   6.658   5.367  0.7192 -1.1269 -2.5906
19377SOL    HW259573   5.418   6.627   5.327  1.9640 -1.0080  1.3322
19378SOL     OW59574   4.999   3.263  11.762 -0.0944 -0.0377  0.1397
19378SOL    HW159575   4.915   3.277  11.806  0.5962  0.6565  1.3169
19378SOL    HW259576   4.985   3.293  11.672 -1.6816 -1.9126 -0.2878
19379SOL     OW59577   0.770   6.776   2.346  0.0990 -0.0375 -0.0593
19379SOL    HW159578   0.812   6.851   2.303 -2.6102  1.2397 -0.6717
19379SOL    HW259579   0.768   6.708   2.279  1.4606 -0.2548  0.0990
19380SOL     OW59580   1.940   5.665  10.924 -0.0291  0.0804  0.1038
19380SOL    HW159581   1.863   5.667  10.867 -0.1677  1.3863  0.2963
19380SOL    HW259582   1.909   5.699  11.008  0.4266 -0.7750  0.6316
19381SOL     OW59583   1.345   5.919   4.722 -0.2721 -0.0676  0.3487
19381SOL    HW159584   1.283   5.926   4.794  0.1463 -0.6873  0.7753
19381SOL    HW259585   1.424   5.882   4.761 -0.3221 -1.2379 -0.5889
19382SOL     OW59586   7.456   2.178   6.690 -0.4695 -0.0354 -0.2539
19382SOL    HW159587   7.484   2.268   6.673 -0.4080 -0.1903 -1.0238
19382SOL    HW259588   7.529   2.140   6.739 -0.8889  0.5854  0.9024
19383SOL     OW59589   1.307   4.540   7.286 -0.3529  0.6516 -0.0208
19383SOL    HW159590   1.289   4.533   7.380 -1.3010 -0.7219 -0.2797
19383SOL    HW259591   1.225   4.572   7.249 -0.0415  0.9999 -0.4225
19384SOL     OW59592   6.962   5.784  10.109 -0.3727  0.3371  0.1329
19384SOL    HW159593   7.021   5.731  10.055  1.0564  0.6935  1.2942
19384SOL    HW259594   6.875   5.765  10.074  0.4009 -0.1853 -1.6505
19385SOL     OW59595   1.353   3.755   6.798 -0.5962 -0.3626 -0.1894
19385SOL    HW159596   1.397   3.694   6.739 -1.7968 -0.4039 -1.0861
19385SOL    HW259597   1.354   3.839   6.751  0.2807  0.1301  0.6615
19386SOL     OW59598   0.072   2.252  10.677  0.3661 -0.1276  0.6165
19386SOL    HW159599  -0.009   2.278  10.719  0.0684  0.2175 -0.1494
19386SOL    HW259600   0.060   2.159  10.657  0.1203 -0.0521  0.4137
19387SOL     OW59601   5.894   6.840   8.531  0.0044  0.1028 -0.4702
19387SOL    HW159602   5.835   6.910   8.503 -0.2880 -0.1306 -0.4458
19387SOL    HW259603   5.933   6.872   8.612  1.1703  0.9615 -1.3479
19388SOL     OW59604   1.526   3.863   7.442  0.5136 -0.1588  1.0177
19388SOL    HW159605   1.615   3.860   7.407 -0.1037  0.9861 -0.7794
19388SOL    HW259606   1.536   3.899   7.530  1.7977  0.3779  0.6768
19389SOL     OW59607   7.246   4.233   0.712  0.3017 -0.1675 -0.0969
19389SOL    HW159608   7.242   4.226   0.616  0.0836 -2.0226  0.0051
19389SOL    HW259609   7.264   4.325   0.729  3.3063 -0.2687 -2.0138
19390SOL     OW59610   5.573   6.320   4.746  0.1186  0.6358 -0.1481
19390SOL    HW159611   5.638   6.324   4.676 -0.0560  1.4059 -0.2741
19390SOL    HW259612   5.550   6.412   4.764  1.2680  0.5814  1.9662
19391SOL     OW59613   0.842   6.333   2.273 -0.3441  0.0332 -0.1072
19391SOL    HW159614   0.787   6.403   2.308  0.0543  1.0267 -1.4052
19391SOL    HW259615   0.846   6.268   2.343 -2.4171  0.3493  0.3579
19392SOL     OW59616   7.324   0.891   1.326  0.1073  0.0929  0.2453
19392SOL    HW159617   7.345   0.891   1.419 -0.5428  0.1763  0.3924
19392SOL    HW259618   7.243   0.942   1.319 -0.3483 -0.6771 -0.2492
19393SOL     OW59619   2.577   1.378   2.208  0.1090  0.3803 -0.6451
19393SOL    HW159620   2.655   1.434   2.217 -0.9046  1.7759 -0.1781
19393SOL    HW259621   2.514   1.416   2.269 -0.9003 -0.8255 -0.9079
19394SOL     OW59622   7.161   5.653   2.326  0.4365 -0.5367 -0.1779
19394SOL    HW159623   7.202   5.569   2.310  1.1565 -0.1898 -0.2008
19394SOL    HW259624   7.155   5.694   2.240  0.0592 -0.5740 -0.1714
19395SOL     OW59625   0.769   2.581  10.051 -0.0702  0.1521  0.1029
19395SOL    HW159626   0.842   2.626  10.009 -0.9150  1.1483 -0.3581
19395SOL    HW259627   0.804   2.496  10.076  1.1492  0.4877 -0.3882
19396SOL     OW59628   4.264   4.818   1.795  0.4331  0.2100 -0.0231
19396SOL    HW159629   4.330   4.820   1.864 -0.1153  1.6688  0.4901
19396SOL    HW259630   4.309   4.781   1.719  2.5950  3.3347 -0.4161
19397SOL     OW59631   5.656   4.259   5.513  0.3760 -0.0188  0.2474
19397SOL    HW159632   5.670   4.181   5.567  2.7219  0.2854  0.1729
19397SOL    HW259633   5.664   4.227   5.423 -3.6605 -0.5553 -0.1191
19398SOL     OW59634   2.741   3.162   3.673 -0.3326  0.7547 -0.4810
19398SOL    HW159635   2.807   3.161   3.742  1.8791  1.4503 -2.4327
19398SOL    HW259636   2.732   3.071   3.647  2.6319  0.8964 -2.5114
19399SOL     OW59637   7.940   3.198   8.579  0.4505 -0.0430  0.3310
19399SOL    HW159638   7.847   3.221   8.574  0.1674 -1.3789 -1.6693
19399SOL    HW259639   7.986   3.276   8.551 -0.2367 -0.2047 -1.3676
19400SOL     OW59640   4.487   6.839   2.839 -0.7885 -0.3564  0.2598
19400SOL    HW159641   4.441   6.781   2.779 -1.2918  0.1898  0.1070
19400SOL    HW259642   4.552   6.883   2.784 -1.6773  0.6208 -0.0464
19401SOL     OW59643   2.220   7.962   6.191  0.3077  0.0387  0.0030
19401SOL    HW159644   2.158   7.914   6.246  1.0709  0.2602  1.0947
19401SOL    HW259645   2.304   7.952   6.236  0.7485  1.1571 -0.5410
19402SOL     OW59646   7.578   0.160   2.881 -0.6970  0.4943  0.0181
19402SOL    HW159647   7.591   0.212   2.802 -1.0360 -0.0995 -0.4288
19402SOL    HW259648   7.526   0.217   2.938 -0.8288  0.7525 -0.3560
19403SOL     OW59649   5.348   6.189   3.530  0.6742 -0.2455 -0.4031
19403SOL    HW159650   5.303   6.191   3.446 -0.3207  1.0836  0.1100
19403SOL    HW259651   5.381   6.279   3.541 -0.4831  0.0312  1.2415
19404SOL     OW59652   0.619   5.000   0.727 -0.0828 -0.5329 -0.4827
19404SOL    HW159653   0.545   4.975   0.671 -0.2871  0.2768 -0.5913
19404SOL    HW259654   0.579   5.050   0.799  0.1229 -1.9174  0.6460
19405SOL     OW59655   5.495   2.356   4.392  0.2489 -0.1395  0.1298
19405SOL    HW159656   5.431   2.409   4.439  0.0186  0.2533 -0.6120
19405SOL    HW259657   5.580   2.388   4.422  0.1178  0.8721 -0.5254
19406SOL     OW59658   2.414   6.168   0.465  0.0605  0.4805 -0.2846
19406SOL    HW159659   2.428   6.262   0.448 -0.8142  1.1408  2.2429
19406SOL    HW259660   2.441   6.125   0.384  0.6237  2.9007 -1.4774
19407SOL     OW59661   7.279   3.880  10.839  0.2744 -0.0359  0.0327
19407SOL    HW159662   7.274   3.966  10.879 -0.7691 -0.0407 -0.0624
19407SOL    HW259663   7.244   3.821  10.906  0.1763 -0.2756 -0.2304
19408SOL     OW59664   2.563   3.445   4.202  0.0166  0.6026 -0.3726
19408SOL    HW159665   2.541   3.421   4.112 -0.3348  0.7030 -0.3159
19408SOL    HW259666   2.656   3.426   4.210 -0.2566 -0.7757 -0.3160
19409SOL     OW59667   6.614   4.004   9.101  0.7978  0.0748 -1.0027
19409SOL    HW159668   6.661   3.926   9.072  1.0665  0.0871 -0.6084
19409SOL    HW259669   6.676   4.076   9.086  0.6673  0.1734 -1.0741
19410SOL     OW59670   5.816   1.706   0.198 -0.5049 -0.6075 -0.0248
19410SOL    HW159671   5.788   1.739   0.113  0.6290 -2.7493 -1.3107
19410SOL    HW259672   5.736   1.672   0.238 -0.8957 -0.3743 -0.5913
19411SOL     OW59673   0.381   6.078   3.522  0.0104 -0.2387  0.0163
19411SOL    HW159674   0.381   6.004   3.462  1.1124  0.7442 -1.2416
19411SOL    HW259675   0.465   6.074   3.567  1.6485  2.0522 -2.4948
19412SOL     OW59676   0.374   5.725   4.941  0.5772  0.0884  0.5120
19412SOL    HW159677   0.282   5.717   4.918  0.8906 -0.4112 -0.6410
19412SOL    HW259678   0.376   5.718   5.036 -0.4206 -1.6191  0.4388
19413SOL     OW59679   4.306   1.383   9.756 -0.3012 -0.2431 -0.3691
19413SOL    HW159680   4.361   1.371   9.679 -1.2990  0.3050 -1.1905
19413SOL    HW259681   4.218   1.358   9.728 -0.4332 -1.4987  1.0356
19414SOL     OW59682   6.979   2.598   9.988  0.0158 -0.2039 -0.7016
19414SOL    HW159683   6.889   2.590  10.019  0.0101  1.4528 -0.2250
19414SOL    HW259684   7.033   2.569  10.062 -0.0935 -0.1642 -0.6073
19415SOL     OW59685   5.218   3.777   8.575  0.1892 -0.1765  0.6040
19415SOL    HW159686   5.216   3.684   8.598  0.3794 -0.3146  0.0795
19415SOL    HW259687   5.286   3.784   8.508  0.5375  0.4320  1.0159
19416SOL     OW59688   2.306   0.828  12.436  0.5710 -0.2950 -0.9481
19416SOL    HW159689   2.386   0.837  12.384  0.7505 -0.9981 -0.8065
19416SOL    HW259690   2.241   0.796  12.374  0.3350  0.4711 -1.1099
19417SOL     OW59691   1.684   2.714   2.198  0.1099  0.0461  0.0868
19417SOL    HW159692   1.705   2.807   2.207  1.4039 -0.0941 -1.1616
19417SOL    HW259693   1.608   2.712   2.141 -0.2652  0.3452  0.5627
19418SOL     OW59694   6.871   6.275   7.583  1.1273  0.0480  0.0720
19418SOL    HW159695   6.795   6.247   7.634 -1.5631  2.5523 -2.1813
19418SOL    HW259696   6.945   6.263   7.642 -1.1556 -1.2912  2.9204
19419SOL     OW59697   4.345   0.855  12.052  0.5646 -0.5876  0.2823
19419SOL    HW159698   4.274   0.791  12.047 -1.4803  1.6269 -0.7164
19419SOL    HW259699   4.343   0.885  12.143  1.9030 -2.1968  0.9168
19420SOL     OW59700   2.624   4.488  10.290 -0.2383  0.3706  0.0787
19420SOL    HW159701   2.606   4.464  10.199  1.0884 -4.0907  0.7710
19420SOL    HW259702   2.621   4.584  10.290 -0.5053  0.6001 -4.5664
19421SOL     OW59703   5.476   1.735   1.928 -0.0415 -0.1057 -0.3881
19421SOL    HW159704   5.437   1.766   2.010 -1.3523  2.4770 -1.8407
19421SOL    HW259705   5.404   1.691   1.883 -0.1120  0.8637 -1.2546
19422SOL     OW59706   2.781   6.409  11.601 -0.2826  0.1015 -0.5385
19422SOL    HW159707   2.773   6.317  11.623  0.4501 -0.2271 -1.5847
19422SOL    HW259708   2.834   6.447  11.672  1.4332 -0.7828 -1.2892
19423SOL     OW59709   7.821   5.097   9.384  0.1067  0.1097  0.1315
19423SOL    HW159710   7.885   5.058   9.444 -0.6819 -3.1002 -0.9075
19423SOL    HW259711   7.874   5.132   9.312  0.8006 -1.2747 -0.0568
19424SOL     OW59712   4.471   4.496   2.296 -0.0577  0.5329  0.3789
19424SOL    HW159713   4.510   4.413   2.270  0.1043  0.8294 -0.3660
19424SOL    HW259714   4.379   4.490   2.270 -0.1293  0.4530  0.6496
19425SOL     OW59715   1.187   5.493   2.353  0.1611  0.0049 -0.1298
19425SOL    HW159716   1.200   5.564   2.291  0.0703  1.1559  1.1302
19425SOL    HW259717   1.107   5.449   2.324  0.4695  0.1135 -1.1762
19426SOL     OW59718   5.344   3.741   3.087 -0.0341  0.2945  0.5172
19426SOL    HW159719   5.343   3.720   2.993  0.1676 -0.1198  0.6026
19426SOL    HW259720   5.338   3.836   3.090 -0.2355  0.3005  0.0871
19427SOL     OW59721   0.544   5.660  12.197 -0.3935 -0.0817  0.1391
19427SOL    HW159722   0.592   5.592  12.244 -1.1172 -0.3729  0.4746
19427SOL    HW259723   0.497   5.613  12.128 -1.5593 -0.0615  0.8916
19428SOL     OW59724   2.107   3.722   0.552 -0.2520 -0.2908 -0.4805
19428SOL    HW159725   2.057   3.706   0.472 -2.0616 -0.4704  0.6495
19428SOL    HW259726   2.138   3.635   0.579 -1.4260 -0.5460  0.1188
19429SOL     OW59727   5.447   1.362   9.568 -0.7200  0.2138 -0.1056
19429SOL    HW159728   5.484   1.407   9.492 -1.4805 -0.4748 -0.9088
19429SOL    HW259729   5.408   1.431   9.621  1.6403  0.9558  0.7599
19430SOL     OW59730   0.024   4.671  11.277 -0.0499  0.0793  0.2253
19430SOL    HW159731  -0.012   4.757  11.257  0.0868  0.4250  1.4038
19430SOL    HW259732  -0.045   4.626  11.325  0.9294  0.6682  2.2988
19431SOL     OW59733   4.413   3.803   4.267  0.8286  0.1161 -0.0893
19431SOL    HW159734   4.463   3.722   4.268 -0.5497 -0.7749 -0.8285
19431SOL    HW259735   4.328   3.779   4.228 -0.9803  1.0798  2.9153
19432SOL     OW59736   0.123   4.950  11.179  0.1778  0.5602 -0.1797
19432SOL    HW159737   0.181   4.955  11.255  1.5812  1.7879 -1.2693
19432SOL    HW259738   0.156   5.017  11.119 -1.4233  0.2236 -1.5216
19433SOL     OW59739   4.232   2.169  10.537 -0.1105 -0.1502  0.1689
19433SOL    HW159740   4.264   2.080  10.554  2.1974  0.7928  1.1473
19433SOL    HW259741   4.149   2.174  10.584  0.7744 -1.1381  1.9546
19434SOL     OW59742   6.362   1.639   0.569  0.1233 -1.1052 -0.2520
19434SOL    HW159743   6.272   1.646   0.537  0.9354  1.5989 -2.3356
19434SOL    HW259744   6.410   1.603   0.494  1.6426  2.9554 -1.5141
19435SOL     OW59745   1.853   5.410   6.634  0.2039  0.0878  0.0318
19435SOL    HW159746   1.872   5.445   6.547  1.4857  1.5577  0.8393
19435SOL    HW259747   1.854   5.315   6.623 -0.0659  0.2503 -1.6308
19436SOL     OW59748   6.528   4.044   9.345 -0.5182  0.2187  0.1904
19436SOL    HW159749   6.578   4.034   9.426 -0.7767  1.4100  0.5172
19436SOL    HW259750   6.588   4.016   9.276  0.2988  0.7967  0.6528
19437SOL     OW59751   6.081   3.476  11.703  0.7975 -0.0114  0.3912
19437SOL    HW159752   6.039   3.442  11.624  0.3889  0.8374  0.2289
19437SOL    HW259753   6.172   3.446  11.696  0.9585  0.6747 -0.7870
19438SOL     OW59754   4.904   1.721   6.339  0.3538 -0.5534  0.0777
19438SOL    HW159755   4.937   1.665   6.410  0.8242 -2.2040 -1.3754
19438SOL    HW259756   4.945   1.806   6.355 -0.0913 -0.6595  2.1517
19439SOL     OW59757   4.595   3.724   9.940 -0.0725 -0.2800  0.6094
19439SOL    HW159758   4.611   3.656   9.875 -2.3998  0.0350 -0.4130
19439SOL    HW259759   4.614   3.682  10.024 -0.7651 -2.0056 -0.0502
19440SOL     OW59760   7.441   5.067   1.715  0.0406  0.1914  0.1366
19440SOL    HW159761   7.431   5.046   1.808  0.7284  0.3602  0.2539
19440SOL    HW259762   7.422   4.984   1.670 -1.9689  0.5008  0.3048
19441SOL     OW59763   4.006   2.412   6.157 -0.4381 -0.9571  0.0825
19441SOL    HW159764   3.994   2.505   6.142  1.1428 -0.5991  0.8393
19441SOL    HW259765   3.968   2.396   6.243 -0.4254 -0.9431  0.0908
19442SOL     OW59766   6.538   4.355   7.176 -0.0163 -0.4175  0.2684
19442SOL    HW159767   6.513   4.315   7.093  0.9127 -0.1411 -0.1553
19442SOL    HW259768   6.460   4.348   7.230 -1.2946  1.0936 -1.2587
19443SOL     OW59769   0.102   2.676   3.449  0.0327 -0.4400 -0.2377
19443SOL    HW159770   0.147   2.726   3.380  1.9455 -1.2019  0.3844
19443SOL    HW259771   0.123   2.585   3.429  0.9343 -0.6498  1.5204
19444SOL     OW59772   1.848   7.019   4.852 -0.4551  0.2220  0.2685
19444SOL    HW159773   1.825   6.998   4.762  0.1419  0.4616  0.0552
19444SOL    HW259774   1.892   7.104   4.847  1.3628 -0.6371  0.5082
19445SOL     OW59775   7.557   7.650   5.469  0.0212 -0.1532 -0.0648
19445SOL    HW159776   7.594   7.722   5.419 -1.0214 -0.0511 -0.7003
19445SOL    HW259777   7.580   7.670   5.560 -1.5933  1.8431 -0.0191
19446SOL     OW59778   0.852   7.466   0.436 -0.3307 -0.1901 -0.1358
19446SOL    HW159779   0.916   7.417   0.487  0.1474  0.5445 -0.0231
19446SOL    HW259780   0.874   7.558   0.450 -0.1177  0.0365 -1.7560
19447SOL     OW59781   5.046   6.268   3.967 -0.1954 -0.3668  0.1222
19447SOL    HW159782   4.979   6.311   3.913 -0.4724 -1.1163 -0.1518
19447SOL    HW259783   5.127   6.278   3.917 -0.1037  0.5226  0.4421
19448SOL     OW59784   0.261   1.014   7.962 -0.1867  0.0109  0.5223
19448SOL    HW159785   0.220   1.098   7.941  1.2989  0.5610 -0.3351
19448SOL    HW259786   0.354   1.028   7.946  0.3655 -1.1920  2.4040
19449SOL     OW59787   2.510   4.863   2.830 -0.1811  0.3818 -0.1085
19449SOL    HW159788   2.431   4.870   2.776 -0.2879  0.4250  0.0523
19449SOL    HW259789   2.582   4.856   2.767 -0.3389  0.0607 -0.2561
19450SOL     OW59790   7.333   1.130   8.059  0.5858  0.0017  0.2233
19450SOL    HW159791   7.378   1.211   8.082  2.0907 -0.1483 -1.8777
19450SOL    HW259792   7.240   1.153   8.061  0.9120  1.3691  1.0879
19451SOL     OW59793   5.305   1.979  10.219  0.0823  0.6065  0.2807
19451SOL    HW159794   5.317   1.906  10.279 -0.7489  1.3077  1.3284
19451SOL    HW259795   5.392   2.019  10.213  1.2292 -1.9446 -2.3808
19452SOL     OW59796   1.001   5.042   7.304 -0.6760 -0.4173  0.1177
19452SOL    HW159797   1.035   4.963   7.345  1.3408  0.5310  0.3739
19452SOL    HW259798   1.032   5.038   7.214 -0.3514  0.2011  0.1997
19453SOL     OW59799   7.764   4.605   8.043 -0.0715  0.1643  0.0065
19453SOL    HW159800   7.724   4.631   7.960 -1.1551 -1.4366 -0.0054
19453SOL    HW259801   7.840   4.552   8.017  0.3624  0.7442  0.0563
19454SOL     OW59802   1.751   0.918   8.504  0.7486  0.6598 -0.0754
19454SOL    HW159803   1.699   0.868   8.441  0.5276  0.7759  0.0156
19454SOL    HW259804   1.704   1.001   8.513  0.9327  0.7526  0.0293
19455SOL     OW59805   6.227   6.984   4.139 -0.2924  0.5548  0.5826
19455SOL    HW159806   6.228   7.034   4.221 -0.7369  0.7422  0.4784
19455SOL    HW259807   6.179   7.040   4.078  0.0092  0.4007  0.2020
19456SOL     OW59808   2.028   1.582   1.080  0.5504 -0.0782  0.3160
19456SOL    HW159809   2.108   1.620   1.044  0.9049 -1.3643 -0.3245
19456SOL    HW259810   2.053   1.551   1.167  0.9044 -0.9067 -0.0660
19457SOL     OW59811   4.346   0.864   0.449  0.3636 -0.0445 -0.9754
19457SOL    HW159812   4.316   0.951   0.478  2.3716  0.3135  0.2730
19457SOL    HW259813   4.266   0.815   0.433 -0.8628  1.4104  0.3168
19458SOL     OW59814   5.081   6.903  11.712 -0.0590  0.4404 -0.7516
19458SOL    HW159815   5.103   6.892  11.620  1.1454 -1.8093 -0.2613
19458SOL    HW259816   5.165   6.922  11.755 -0.2932 -0.3277  0.0925
19459SOL     OW59817   2.489   6.196   9.184 -0.2407 -0.0369  0.1267
19459SOL    HW159818   2.503   6.135   9.256 -0.6776  1.5193  1.5921
19459SOL    HW259819   2.542   6.161   9.112  0.6807 -1.3160  1.3747
19460SOL     OW59820   5.455   6.219   6.628  0.2163  0.2139  0.3123
19460SOL    HW159821   5.442   6.308   6.594 -2.5524  0.0080  0.5549
19460SOL    HW259822   5.499   6.173   6.557  0.9820  1.5697 -0.1365
19461SOL     OW59823   0.217   4.656   6.004  0.2045  0.2234  0.0272
19461SOL    HW159824   0.305   4.629   6.031 -0.4956 -1.0615  1.2052
19461SOL    HW259825   0.230   4.702   5.921  1.8747 -0.8981 -0.3904
19462SOL     OW59826   7.590   3.907   8.363 -0.0456  0.1660  0.2006
19462SOL    HW159827   7.578   3.950   8.278  0.9321 -1.1414 -0.6403
19462SOL    HW259828   7.663   3.953   8.403  1.2189 -0.8506 -0.8383
19463SOL     OW59829   2.635   5.764  10.328 -0.4104  0.4267  0.3355
19463SOL    HW159830   2.620   5.741  10.419  0.2176 -0.0981  0.3171
19463SOL    HW259831   2.668   5.854  10.331 -0.5174  0.4561  0.6177
19464SOL     OW59832   0.124   1.454   6.889  0.3235 -0.4298  0.2777
19464SOL    HW159833   0.198   1.508   6.914  0.2048 -0.3749  0.5106
19464SOL    HW259834   0.096   1.411   6.970  0.9798 -1.5466 -0.0629
19465SOL     OW59835   0.749   3.120   4.120 -0.2404 -0.2126 -0.5168
19465SOL    HW159836   0.705   3.059   4.179 -1.6184  0.8536 -0.3962
19465SOL    HW259837   0.801   3.064   4.062 -2.1097 -1.5897 -0.9717
19466SOL     OW59838   6.003   7.389   9.622 -0.6225  0.2712  0.2818
19466SOL    HW159839   6.047   7.307   9.600 -0.8810  0.2071 -0.0049
19466SOL    HW259840   5.935   7.398   9.555 -0.5984  0.7154  0.3201
19467SOL     OW59841   0.370   7.835   8.029 -0.3987 -0.0062  0.1412
19467SOL    HW159842   0.305   7.775   7.993 -0.3083  0.2587 -0.4774
19467SOL    HW259843   0.447   7.825   7.972 -0.3660  0.6564  0.0514
19468SOL     OW59844   0.397   3.346   2.394 -0.1424 -0.1685 -0.7183
19468SOL    HW159845   0.342   3.414   2.356 -0.0924  0.2598 -0.0319
19468SOL    HW259846   0.353   3.321   2.475  0.7643  0.3238 -0.0568
19469SOL     OW59847   0.645   2.096   4.590 -0.3302 -0.2840  0.3286
19469SOL    HW159848   0.579   2.114   4.522 -0.5598  1.4304  0.9592
19469SOL    HW259849   0.726   2.079   4.541 -0.4402  1.1513 -0.3919
19470SOL     OW59850   7.835   0.537   2.857  0.5389  0.2657 -0.0123
19470SOL    HW159851   7.838   0.523   2.762  0.6230  2.6611 -0.4156
19470SOL    HW259852   7.742   0.545   2.877  0.4903 -0.7261  0.2205
19471SOL     OW59853   5.131   2.607  12.009  0.8292 -0.5199 -0.2660
19471SOL    HW159854   5.208   2.616  11.952  0.6444  2.8382 -0.1455
19471SOL    HW259855   5.073   2.678  11.983 -1.4535 -1.8395  0.9181
19472SOL     OW59856   6.896   3.236   2.023  0.4808  0.1968 -0.5287
19472SOL    HW159857   6.840   3.183   2.080  0.6308  0.4377 -0.1510
19472SOL    HW259858   6.842   3.253   1.946  0.1134  0.2351 -0.2694
19473SOL     OW59859   5.017   6.219   2.511 -0.4651  0.5850 -0.4618
19473SOL    HW159860   4.932   6.245   2.474 -0.3215  1.3823 -0.2503
19473SOL    HW259861   5.064   6.302   2.522 -0.0635  0.2446  0.4204
19474SOL     OW59862   1.426   3.003   5.960  0.5369  0.5882  0.0225
19474SOL    HW159863   1.336   3.003   5.928  0.0174 -0.6490  1.3839
19474SOL    HW259864   1.476   3.045   5.890 -0.8613 -0.0144 -1.4053
19475SOL     OW59865   1.635   1.969   3.710 -0.2539 -0.4370 -0.5314
19475SOL    HW159866   1.612   2.060   3.688  0.7747 -0.4816 -1.8901
19475SOL    HW259867   1.641   1.925   3.626 -0.3546 -1.6851  0.0997
19476SOL     OW59868   6.175   0.113  10.762  0.3302  0.3046  0.1716
19476SOL    HW159869   6.110   0.099  10.694  0.8415 -1.0773 -0.0844
19476SOL    HW259870   6.258   0.084  10.723  0.7607  0.1923  1.1119
19477SOL     OW59871   6.481   6.445  11.136 -0.7041 -0.0580  0.5166
19477SOL    HW159872   6.518   6.357  11.121  1.3090  0.7234  0.5440
19477SOL    HW259873   6.387   6.431  11.142 -0.4498 -2.1917  0.2982
19478SOL     OW59874   1.635   0.475   7.826 -0.0543  0.2779 -0.1866
19478SOL    HW159875   1.592   0.542   7.880  0.5362  0.1884  0.3897
19478SOL    HW259876   1.635   0.514   7.738 -1.9287  0.0038 -0.3625
19479SOL     OW59877   0.696   4.400   2.344 -0.4865 -0.1626 -0.4167
19479SOL    HW159878   0.708   4.490   2.314 -1.1257  0.7042  1.7294
19479SOL    HW259879   0.609   4.375   2.311  0.8573 -1.1639 -3.5526
19480SOL     OW59880   5.616   7.936   2.592  0.2895 -0.3866 -0.1107
19480SOL    HW159881   5.577   7.851   2.609  1.0091 -0.8124 -0.5621
19480SOL    HW259882   5.619   7.978   2.679 -1.5164 -0.1639 -0.1144
19481SOL     OW59883   4.769   1.654   3.579  0.5376  0.8251 -0.2267
19481SOL    HW159884   4.707   1.727   3.578  1.3920  1.6381  1.5161
19481SOL    HW259885   4.769   1.621   3.489 -1.6067  1.4567 -0.5129
19482SOL     OW59886   6.875   7.053   9.393 -0.2936  0.0865 -0.0296
19482SOL    HW159887   6.788   7.042   9.356 -0.3778  1.5908 -0.3197
19482SOL    HW259888   6.934   7.017   9.326 -0.5258  1.6744 -1.1584
19483SOL     OW59889   6.617   3.591   8.477  0.2364  0.4458 -0.0830
19483SOL    HW159890   6.691   3.585   8.417 -1.6522 -0.5736 -2.4654
19483SOL    HW259891   6.611   3.504   8.516 -0.7525 -0.0239 -1.2532
19484SOL     OW59892   5.595   3.941   6.548  0.3524 -0.3071 -0.4827
19484SOL    HW159893   5.627   3.906   6.465 -0.3059 -1.3164 -0.3332
19484SOL    HW259894   5.596   4.036   6.536  1.5196 -0.3813 -1.1600
19485SOL     OW59895   2.775   4.571  12.243 -0.0881 -0.0113  0.2422
19485SOL    HW159896   2.831   4.614  12.178  0.6124 -0.3082  0.6369
19485SOL    HW259897   2.735   4.643  12.292 -1.1080  0.2309 -0.8956
19486SOL     OW59898   2.702   6.002  11.448 -0.1189 -0.5284 -0.2190
19486SOL    HW159899   2.616   5.960  11.450 -0.2071 -0.4942 -1.9511
19486SOL    HW259900   2.686   6.089  11.411  0.4882 -0.0155  0.6837
19487SOL     OW59901   6.072   3.231   4.456  0.3862  0.0597 -0.5651
19487SOL    HW159902   6.083   3.260   4.547 -0.0234 -0.9220 -0.1908
19487SOL    HW259903   6.015   3.298   4.417  1.1657  0.8798 -0.3131
19488SOL     OW59904   2.923   1.960   8.639  0.1323 -0.3793  0.4968
19488SOL    HW159905   2.891   1.986   8.725  1.1239 -1.2794  1.1585
19488SOL    HW259906   2.846   1.926   8.593 -0.5817  0.9307  0.6765
19489SOL     OW59907   5.333   5.574   4.981 -0.1067 -0.5204 -0.0489
19489SOL    HW159908   5.381   5.629   4.919  0.0539 -0.0376  0.4894
19489SOL    HW259909   5.262   5.630   5.013 -1.5520 -1.4773 -1.4215
19490SOL     OW59910   7.019   0.157   0.201 -0.4869  0.1212 -0.2185
19490SOL    HW159911   7.001   0.141   0.109  2.8862 -1.3402 -0.7596
19490SOL    HW259912   7.085   0.226   0.202 -4.1872  4.1896  1.5530
19491SOL     OW59913   4.995   6.064   3.735 -0.0230  0.1544 -0.2564
19491SOL    HW159914   5.044   6.049   3.655  0.0761  0.4372 -0.2474
19491SOL    HW259915   5.061   6.091   3.799 -0.1034 -0.0549 -0.0823
19492SOL     OW59916   6.592   6.124   4.974  0.0022  0.0535  0.4858
19492SOL    HW159917   6.583   6.125   5.069 -2.2828  0.0754  0.3170
19492SOL    HW259918   6.559   6.038   4.948 -4.4311  1.7782 -0.5598
19493SOL     OW59919   5.382   0.276   5.063  0.3912  0.7596 -0.5385
19493SOL    HW159920   5.316   0.272   5.132 -2.1282  2.6495 -2.6032
19493SOL    HW259921   5.383   0.187   5.026  1.2590 -0.0772  1.3794
19494SOL     OW59922   6.454   3.712   4.930 -0.2322  0.6032  0.1221
19494SOL    HW159923   6.373   3.706   4.980 -0.5530 -0.0148 -0.4568
19494SOL    HW259924   6.453   3.635   4.873  0.6379  0.7264 -0.0757
19495SOL     OW59925   1.408   5.042  10.684 -0.0142 -0.1150 -0.6166
19495SOL    HW159926   1.416   4.966  10.627 -1.1861 -0.8734  0.1950
19495SOL    HW259927   1.445   5.014  10.767 -1.4779 -0.2158  0.0333
19496SOL     OW59928   6.043   1.611   7.131 -0.5092 -0.3515  0.5226
19496SOL    HW159929   6.067   1.537   7.076 -0.2312 -0.7361  1.1458
19496SOL    HW259930   6.020   1.681   7.070 -0.1125 -0.7376 -0.0752
19497SOL     OW59931   3.698   3.278   2.912  0.3842  0.2695 -0.1315
19497SOL    HW159932   3.763   3.246   2.849 -0.2561 -1.4230  0.0002
19497SOL    HW259933   3.646   3.342   2.864  2.2338  1.8227 -0.1776
19498SOL     OW59934   5.100   6.942  11.442  0.3779 -0.0644 -0.1132
19498SOL    HW159935   5.186   6.982  11.429  0.4956 -0.1037  0.5071
19498SOL    HW259936   5.046   6.980  11.373  0.9842 -0.3218 -0.7432
19499SOL     OW59937   0.183   5.892   6.561 -0.4378 -0.2187  0.0186
19499SOL    HW159938   0.156   5.828   6.627  0.0349 -0.7275 -0.2710
19499SOL    HW259939   0.182   5.975   6.608 -0.3986 -0.5288  0.5910
19500SOL     OW59940   6.101   2.601  12.166 -0.5554  0.6386 -0.8859
19500SOL    HW159941   6.030   2.654  12.200 -0.0662  1.1541 -0.6610
19500SOL    HW259942   6.110   2.530  12.230 -1.4406  0.0693 -1.3674
19501SOL     OW59943   2.295   1.302   8.322 -0.1174  0.3713  0.4010
19501SOL    HW159944   2.203   1.326   8.328  0.1097  1.7005 -0.8573
19501SOL    HW259945   2.327   1.346   8.243  1.3678 -0.8478  0.2674
19502SOL     OW59946   6.919   6.482   7.441  0.3430  0.0805 -0.5513
19502SOL    HW159947   6.971   6.518   7.513  0.1936  0.7272 -0.7586
19502SOL    HW259948   6.896   6.394   7.470 -0.8728  0.7976  0.7976
19503SOL     OW59949   6.448   6.919  10.366  0.2168  0.3542 -0.2542
19503SOL    HW159950   6.413   6.948  10.282 -0.3529 -2.6261 -1.1793
19503SOL    HW259951   6.373   6.924  10.426 -0.3467 -0.7427 -0.8338
19504SOL     OW59952   3.663   6.651   2.833  0.6269 -0.1974  0.3411
19504SOL    HW159953   3.754   6.635   2.857  0.3700 -0.0545  1.4566
19504SOL    HW259954   3.643   6.583   2.768  2.0349  0.8521 -1.2914
19505SOL     OW59955   4.690   5.993   9.144  0.0463 -0.0765  0.7959
19505SOL    HW159956   4.642   6.070   9.114 -0.8025 -0.5907  0.7868
19505SOL    HW259957   4.780   6.009   9.117 -0.5043 -0.0932 -1.2830
19506SOL     OW59958   5.727   7.429   4.777 -0.1092 -0.4921  0.4834
19506SOL    HW159959   5.770   7.455   4.858 -0.2092  1.4357 -0.0184
19506SOL    HW259960   5.797   7.425   4.712 -0.1022 -1.5036  0.5500
19507SOL     OW59961   0.005   7.235   1.595  0.1200 -0.0390  0.1865
19507SOL    HW159962   0.076   7.298   1.585 -1.0556  1.6317  1.5950
19507SOL    HW259963  -0.059   7.261   1.529  0.2383 -0.6881 -0.1892
19508SOL     OW59964   1.990   1.948   6.915  0.5984 -0.2353  0.7067
19508SOL    HW159965   1.923   2.014   6.933  1.1162  0.0076  1.8270
19508SOL    HW259966   1.958   1.900   6.839 -0.3831  0.5018  0.6520
19509SOL     OW59967   6.983   3.916   9.153  0.2405  0.1777  0.1787
19509SOL    HW159968   7.039   3.853   9.197 -1.4378 -1.2941  0.3351
19509SOL    HW259969   7.039   3.992   9.137  1.8979 -0.7329  1.4115
19510SOL     OW59970   3.804   2.011   9.323  1.0912 -0.2625  0.0803
19510SOL    HW159971   3.883   1.960   9.340  1.3065  0.7521  2.4619
19510SOL    HW259972   3.787   2.058   9.404 -2.3087 -0.8894 -0.1079
19511SOL     OW59973   4.194   3.635   0.367  0.3149 -0.0885 -0.1117
19511SOL    HW159974   4.267   3.644   0.428  0.1968  1.1238 -0.1300
19511SOL    HW259975   4.199   3.544   0.336  1.1662 -0.3259  0.6896
19512SOL     OW59976   2.453   1.962   2.683 -0.5390 -0.7413 -0.4353
19512SOL    HW159977   2.481   1.886   2.736  1.7494 -0.4283 -1.0608
19512SOL    HW259978   2.395   2.011   2.741  1.2433 -0.8252  1.5632
19513SOL     OW59979   1.716   7.180   0.965  0.2439  0.0975 -0.0488
19513SOL    HW159980   1.788   7.139   1.014  1.0968  0.9544 -0.5647
19513SOL    HW259981   1.758   7.223   0.891 -0.9501 -0.5333 -1.1453
19514SOL     OW59982   3.019   7.615   6.202  0.4334 -0.1675  0.2574
19514SOL    HW159983   2.962   7.591   6.129 -0.1196  0.5860  0.4350
19514SOL    HW259984   3.081   7.542   6.209 -0.8552 -1.2690  0.4235
19515SOL     OW59985   4.078   4.110  11.894  0.0694 -0.1624 -0.0063
19515SOL    HW159986   4.072   4.101  11.799 -2.2260  0.8681 -0.0290
19515SOL    HW259987   4.116   4.197  11.908  0.1809 -0.2148  0.0190
19516SOL     OW59988   1.580   1.815   7.449 -0.3599 -0.4267  0.2653
19516SOL    HW159989   1.571   1.863   7.367  0.9933  0.3207  0.5258
19516SOL    HW259990   1.512   1.748   7.445 -1.2128  0.4601 -0.8472
19517SOL     OW59991   4.167   5.391   6.075 -0.2420 -0.3432  0.0552
19517SOL    HW159992   4.253   5.405   6.116 -0.1898  0.5780 -0.3312
19517SOL    HW259993   4.127   5.321   6.126  0.4146 -0.2261  0.7528
19518SOL     OW59994   3.123   5.328   5.198  0.3167 -0.0998 -0.4953
19518SOL    HW159995   3.169   5.384   5.260  0.3812 -1.8059  1.0995
19518SOL    HW259996   3.062   5.386   5.153  1.4305  1.5043 -0.0162
19519SOL     OW59997   1.556   4.838  11.778 -0.0576 -0.5059 -0.0952
19519SOL    HW159998   1.618   4.768  11.758  0.1266 -0.1608 -0.7509
19519SOL    HW259999   1.501   4.844  11.700  0.1551  0.3181 -0.1852
19520SOL     OW60000   1.783   4.544   3.879 -0.0213 -0.1325 -0.0107
19520SOL    HW160001   1.857   4.494   3.846 -0.3459 -0.4568 -0.2511
19520SOL    HW260002   1.724   4.552   3.804  0.6377  1.8006 -0.3717
19521SOL     OW60003   4.390   6.420   6.156  0.6004 -0.5026  0.0583
19521SOL    HW160004   4.338   6.356   6.205  0.5114  0.6127  1.5138
19521SOL    HW260005   4.481   6.392   6.169  0.6227  0.0867  1.4208
19522SOL     OW60006   2.773   5.672   9.693  0.2501 -0.0096  0.5463
19522SOL    HW160007   2.777   5.766   9.675 -0.4804  0.0085  0.4156
19522SOL    HW260008   2.684   5.659   9.727  0.0000 -0.8049 -0.3602
19523SOL     OW60009   0.082   3.181   2.438  0.3021 -0.1757  0.4042
19523SOL    HW160010   0.113   3.105   2.488  2.6205  0.4389  0.0156
19523SOL    HW260011   0.155   3.243   2.440 -1.3608  1.8851  0.3189
19524SOL     OW60012   6.909   0.537  11.617  0.3793  0.1454 -0.3383
19524SOL    HW160013   6.906   0.444  11.594 -0.7856 -0.0220  0.4234
19524SOL    HW260014   6.992   0.546  11.663 -0.2881 -0.9438  1.1885
19525SOL     OW60015   2.924   5.866   7.282  1.0157 -0.0877 -0.0672
19525SOL    HW160016   2.914   5.842   7.190 -2.3317  0.5009  0.0130
19525SOL    HW260017   2.860   5.812   7.328  1.0788  1.1726  1.5956
19526SOL     OW60018   7.216   3.300  12.286  0.0459  0.5040 -0.2517
19526SOL    HW160019   7.306   3.265  12.283 -0.8296 -2.4157  2.1285
19526SOL    HW260020   7.166   3.239  12.232 -1.0364 -0.1851  1.4513
19527SOL     OW60021   3.490   7.303   1.240 -0.5767  0.1546 -0.1946
19527SOL    HW160022   3.552   7.354   1.292  0.0189 -1.5080  0.7665
19527SOL    HW260023   3.544   7.253   1.180 -1.0673 -0.4108 -0.1692
19528SOL     OW60024   0.032   3.122   0.845  0.3258  0.0706 -0.1474
19528SOL    HW160025   0.004   3.083   0.928 -0.5553  0.6926 -0.1438
19528SOL    HW260026  -0.049   3.143   0.799  0.8024 -1.0550 -1.5666
19529SOL     OW60027   6.043   7.439   1.064  0.3780  0.0532  0.2457
19529SOL    HW160028   6.062   7.365   1.007 -1.2525  1.0603 -1.7392
19529SOL    HW260029   5.974   7.408   1.122 -0.7198  0.1165 -0.9663
19530SOL     OW60030   1.607   4.370  10.739  0.3301 -0.5303  0.2783
19530SOL    HW160031   1.682   4.416  10.775  0.5344 -0.2643 -0.4550
19530SOL    HW260032   1.532   4.425  10.762  0.3822 -0.6833  0.8223
19531SOL     OW60033   5.225   1.202   3.143  0.4457  0.4154 -0.1683
19531SOL    HW160034   5.201   1.110   3.157 -0.0158  0.1512 -2.3790
19531SOL    HW260035   5.273   1.202   3.060 -0.5086  2.3049 -0.7736
19532SOL     OW60036   5.369   1.227   6.848 -0.3922  0.2919  0.1291
19532SOL    HW160037   5.328   1.232   6.934 -1.2459  0.0640 -0.2563
19532SOL    HW260038   5.349   1.310   6.806 -2.7610 -0.7686 -1.0434
19533SOL     OW60039   1.654   6.662   4.602  0.4627 -0.4329  0.1579
19533SOL    HW160040   1.601   6.691   4.528  0.3896  0.0386  0.3866
19533SOL    HW260041   1.739   6.639   4.563  0.1023 -1.1671 -0.2018
19534SOL     OW60042   4.372   5.150   9.532  0.5823  0.2030 -0.1370
19534SOL    HW160043   4.414   5.149   9.445 -0.7244 -1.8781 -0.7918
19534SOL    HW260044   4.289   5.195   9.517  0.0971 -0.6766 -0.1047
19535SOL     OW60045   3.960   0.995   9.847 -0.2860 -0.2005  0.1678
19535SOL    HW160046   4.022   0.983   9.776 -0.9557 -3.7144 -0.0099
19535SOL    HW260047   3.879   0.955   9.815 -0.9660 -0.7962  2.4294
19536SOL     OW60048   4.008   1.902   7.259  0.0418 -0.5739  0.0897
19536SOL    HW160049   4.084   1.942   7.217 -0.5104  0.0051 -0.3867
19536SOL    HW260050   3.999   1.949   7.342  0.6854 -1.2071  0.5301
19537SOL     OW60051   6.149   1.917   6.843  0.2729  0.0831 -0.3948
19537SOL    HW160052   6.207   1.863   6.789  1.0980 -0.6083  1.1114
19537SOL    HW260053   6.208   1.970   6.897 -0.4913  0.1090  0.4559
19538SOL     OW60054   6.997   2.693  12.305  0.1955 -0.3281  0.1200
19538SOL    HW160055   6.983   2.599  12.308 -0.4408 -0.2332  0.3660
19538SOL    HW260056   7.072   2.705  12.246 -1.3986 -0.8437 -2.1623
19539SOL     OW60057   2.022   3.645  10.319  0.1589 -0.0001  0.4415
19539SOL    HW160058   2.012   3.583  10.246 -1.2180 -1.4441  1.7674
19539SOL    HW260059   1.961   3.715  10.300 -0.1581 -0.3434  0.1828
19540SOL     OW60060   6.943   5.426   8.751 -0.3128  0.3934 -0.1301
19540SOL    HW160061   7.033   5.431   8.719  0.2115 -0.8940  1.0233
19540SOL    HW260062   6.891   5.398   8.675  0.3600  0.5221 -0.6412
19541SOL     OW60063   5.489   3.646   3.716 -0.4706  0.6132 -0.1421
19541SOL    HW160064   5.464   3.577   3.778 -0.1174  1.0710  0.5122
19541SOL    HW260065   5.438   3.626   3.637 -1.3560  0.3528  0.4779
19542SOL     OW60066   7.799   3.498   0.559  0.1450 -0.5621 -0.2982
19542SOL    HW160067   7.795   3.434   0.487  0.6458 -0.7802 -0.1406
19542SOL    HW260068   7.759   3.577   0.523 -2.0291 -1.4275  0.0229
19543SOL     OW60069   7.604   1.655   8.989 -0.2294 -0.0102 -0.0143
19543SOL    HW160070   7.552   1.575   8.993 -0.8364  0.3517 -0.4770
19543SOL    HW260071   7.676   1.633   8.930  0.0180 -0.4396  0.4386
19544SOL     OW60072   1.548   7.763   3.770  0.0246 -0.1749  0.2779
19544SOL    HW160073   1.591   7.686   3.807  0.7844  0.6264  1.1433
19544SOL    HW260074   1.502   7.803   3.844 -2.2190 -0.9671 -0.6132
19545SOL     OW60075   0.298   2.850   5.425 -0.0351  0.0882  0.2048
19545SOL    HW160076   0.288   2.787   5.354  0.3078  0.6638 -0.3689
19545SOL    HW260077   0.306   2.796   5.504 -0.8700 -0.5438 -0.1327
19546SOL     OW60078   5.893   0.842   4.054  0.3866 -0.2702  0.0221
19546SOL    HW160079   5.879   0.936   4.046 -1.5439 -0.6733 -3.6647
19546SOL    HW260080   5.831   0.814   4.122  0.6087  1.0156  0.7837
19547SOL     OW60081   0.256   1.956   2.199 -0.3539 -0.6480  0.0989
19547SOL    HW160082   0.241   2.033   2.145 -1.7852 -0.9306  0.0435
19547SOL    HW260083   0.205   1.972   2.279 -0.1719 -1.2649  0.3504
19548SOL     OW60084   4.913   1.238   7.951  0.5731  0.3529 -1.0066
19548SOL    HW160085   4.978   1.170   7.969  0.2719 -0.3119 -2.3512
19548SOL    HW260086   4.920   1.297   8.027  0.5381 -1.3682  0.4056
19549SOL     OW60087   0.523   1.382   0.296 -0.5681 -0.7596 -0.1405
19549SOL    HW160088   0.510   1.387   0.202 -1.1062  0.2537 -0.0290
19549SOL    HW260089   0.438   1.354   0.331 -0.7305  0.0133  0.1198
19550SOL     OW60090   5.705   2.214   7.179 -0.1951 -0.4032 -0.2281
19550SOL    HW160091   5.733   2.158   7.106  1.5041 -0.3050  0.3230
19550SOL    HW260092   5.776   2.209   7.242 -0.4874  1.5655  0.3016
19551SOL     OW60093   4.112   4.960   0.503  0.3647  0.5050 -0.4033
19551SOL    HW160094   4.120   4.913   0.586 -0.5400  1.9760  0.5713
19551SOL    HW260095   4.071   4.898   0.444  0.5403 -0.4053  0.4058
19552SOL     OW60096   1.137   3.618   8.204  0.3611 -0.3775 -0.2947
19552SOL    HW160097   1.215   3.639   8.256 -0.8327  1.1163  0.9940
19552SOL    HW260098   1.136   3.683   8.134  1.4456 -1.7961 -1.6896
19553SOL     OW60099   5.898   4.949   7.254  0.3366 -0.1409  0.5213
19553SOL    HW160100   5.866   4.859   7.257  2.6586 -1.0149  2.5317
19553SOL    HW260101   5.940   4.962   7.339  1.0429  2.4924 -0.1477
19554SOL     OW60102   2.706   0.397   2.846  0.7232  0.2355 -0.2750
19554SOL    HW160103   2.649   0.321   2.856  0.3268  0.4328 -0.9542
19554SOL    HW260104   2.688   0.450   2.924 -1.4666  1.2176 -1.3522
19555SOL     OW60105   2.627   0.218   7.958  0.8264 -0.4064  0.0465
19555SOL    HW160106   2.577   0.221   7.877 -0.7465 -0.0484  0.9758
19555SOL    HW260107   2.700   0.159   7.940  1.0386  0.3748 -1.8793
19556SOL     OW60108   4.009   0.991   8.694  0.0636  0.3806 -0.1273
19556SOL    HW160109   3.914   0.997   8.685  0.2138  2.4231 -0.8817
19556SOL    HW260110   4.028   1.031   8.779  0.3943  2.4976 -1.1279
19557SOL     OW60111   7.420   6.075   0.470  0.0860  1.0434  0.5077
19557SOL    HW160112   7.377   5.991   0.488 -1.1380  1.3979 -0.6831
19557SOL    HW260113   7.477   6.089   0.546 -1.1529  0.0891  1.6593
19558SOL     OW60114   5.444   7.315   7.688 -0.6020  0.4336 -0.8507
19558SOL    HW160115   5.381   7.384   7.710  0.0927  1.2264 -1.2828
19558SOL    HW260116   5.412   7.280   7.605  0.4272  2.0163 -1.9764
19559SOL     OW60117   1.005   7.428   7.395  0.1933  0.1717  0.0375
19559SOL    HW160118   0.983   7.354   7.451 -0.9595  0.4822  0.0124
19559SOL    HW260119   0.997   7.395   7.306 -2.8437  0.9291 -0.0705
19560SOL     OW60120   4.145   1.778   4.613 -0.1632  0.4470  0.1385
19560SOL    HW160121   4.200   1.749   4.686  0.0288  0.6952  0.0924
19560SOL    HW260122   4.072   1.824   4.656 -0.7645 -0.5669  0.2430
19561SOL     OW60123   2.824   2.480   6.697 -0.4192 -0.0792 -0.2229
19561SOL    HW160124   2.907   2.521   6.721 -0.3086 -0.5282  0.1801
19561SOL    HW260125   2.775   2.475   6.779 -0.4345 -0.7391 -0.2645
19562SOL     OW60126   1.130   7.934  10.627  0.2619  0.1616 -0.1093
19562SOL    HW160127   1.224   7.954  10.628  0.4861 -0.8209 -0.1960
19562SOL    HW260128   1.126   7.838  10.620 -0.7516  0.2454 -0.8344
19563SOL     OW60129   4.671   1.139   6.228  0.7421  0.2450  0.4058
19563SOL    HW160130   4.747   1.196   6.238 -0.2294  1.6902 -0.2144
19563SOL    HW260131   4.614   1.162   6.301  0.5132 -0.2388  0.3856
19564SOL     OW60132   1.159   4.609   5.585 -0.6804 -0.4069  0.0894
19564SOL    HW160133   1.170   4.653   5.501  1.4604  1.5676  1.2984
19564SOL    HW260134   1.186   4.518   5.568  0.9724  0.2543 -1.0934
19565SOL     OW60135   5.198   6.575  12.315  0.2400 -0.2139  0.3191
19565SOL    HW160136   5.138   6.626  12.262 -0.8594  0.5125  2.1915
19565SOL    HW260137   5.172   6.484  12.301  0.0764 -0.0520 -0.4695
19566SOL     OW60138   7.276   4.253   6.870 -0.1921 -0.1559 -1.0861
19566SOL    HW160139   7.239   4.167   6.852 -1.2278  0.4793 -2.1921
19566SOL    HW260140   7.205   4.314   6.848 -0.2964  0.9193  1.7745
19567SOL     OW60141   5.803   3.213  10.185 -0.1859 -0.2119  0.6897
19567SOL    HW160142   5.745   3.147  10.224  1.6014 -0.7887  2.5610
19567SOL    HW260143   5.796   3.198  10.091 -0.5284 -2.4918  1.0181
19568SOL     OW60144   6.419   4.147   2.529  0.0424  0.2758  0.0070
19568SOL    HW160145   6.427   4.243   2.529 -0.7549  0.3468 -0.0550
19568SOL    HW260146   6.465   4.120   2.608  1.8748  0.5523 -0.9158
19569SOL     OW60147   0.102   3.018   9.373  1.1636 -0.2955  0.2872
19569SOL    HW160148   0.129   3.017   9.281  2.2172  0.2635  0.5783
19569SOL    HW260149   0.044   3.094   9.380  0.4469 -0.7971 -0.0764
19570SOL     OW60150   3.793   0.975  11.457 -0.1259  0.7918 -0.1610
19570SOL    HW160151   3.865   1.026  11.492  0.5688  0.3521 -0.9080
19570SOL    HW260152   3.786   0.900  11.517  1.1579 -0.0404 -1.0021
19571SOL     OW60153   6.228   3.631   5.073 -0.4879  0.3219 -0.2291
19571SOL    HW160154   6.178   3.550   5.070  2.9657 -1.9614 -2.2430
19571SOL    HW260155   6.269   3.630   5.160  0.6499 -0.9320 -0.7412
19572SOL     OW60156   1.221   2.883   7.459  0.5817 -0.2129 -0.2912
19572SOL    HW160157   1.230   2.978   7.468  1.2474 -0.2715 -0.2606
19572SOL    HW260158   1.226   2.867   7.365 -0.4416 -0.1387 -0.3638
19573SOL     OW60159   3.629   0.737   8.681 -0.6252 -0.1940  0.1737
19573SOL    HW160160   3.618   0.743   8.586  2.5578 -0.4109 -0.3003
19573SOL    HW260161   3.643   0.644   8.697  0.1405  0.0015  0.6686
19574SOL     OW60162   5.969   6.397   7.625 -0.2097 -0.0430 -0.3784
19574SOL    HW160163   5.991   6.361   7.710 -0.5489  0.5086 -0.0484
19574SOL    HW260164   5.873   6.401   7.624 -0.2028  0.1575 -0.6939
19575SOL     OW60165   7.757   3.645   1.537 -0.3471 -0.2610 -0.6323
19575SOL    HW160166   7.667   3.628   1.511 -0.6357  0.2675 -0.0107
19575SOL    HW260167   7.750   3.685   1.624  0.5662 -2.0198  0.3276
19576SOL     OW60168   0.887   6.619   4.076  0.0818 -0.1893 -0.0111
19576SOL    HW160169   0.810   6.618   4.020  0.0160  1.5814 -0.0155
19576SOL    HW260170   0.957   6.652   4.020  0.2452  0.6220  0.6430
19577SOL     OW60171   1.845   3.941  10.294 -0.1298  0.8086  0.4551
19577SOL    HW160172   1.896   3.969  10.369 -0.7696  1.2973  0.7213
19577SOL    HW260173   1.760   3.915  10.330  0.3215 -1.1971  0.1751
19578SOL     OW60174   5.210   6.946   7.802 -0.1714 -0.3372  0.4408
19578SOL    HW160175   5.170   7.023   7.762  1.6590  1.7356  2.3522
19578SOL    HW260176   5.253   6.901   7.730 -0.8115  0.7140 -0.6367
19579SOL     OW60177   6.030   4.402  11.388 -0.8482 -0.2626 -0.6246
19579SOL    HW160178   6.067   4.453  11.316 -0.3338 -0.3811 -0.4536
19579SOL    HW260179   5.992   4.325  11.346  1.4156 -1.4740 -0.6265
19580SOL     OW60180   5.702   6.237   6.232  0.0492 -0.1805 -0.3688
19580SOL    HW160181   5.784   6.218   6.187 -0.1055 -0.4513 -0.5344
19580SOL    HW260182   5.636   6.187   6.184  0.1395 -1.9736  1.2644
19581SOL     OW60183   2.362   5.317   7.741  0.3197  0.7978 -0.0722
19581SOL    HW160184   2.427   5.248   7.750 -0.8303 -0.2592  0.4810
19581SOL    HW260185   2.384   5.361   7.659 -1.0561 -2.6152 -2.4729
19582SOL     OW60186   0.833   4.501   3.162 -0.1114 -0.2147 -0.2633
19582SOL    HW160187   0.792   4.458   3.087 -1.8186  0.5135  0.1958
19582SOL    HW260188   0.766   4.560   3.195  1.4196  1.2026  0.4439
19583SOL     OW60189   7.289   7.712   7.752 -0.2578  0.0038  0.1425
19583SOL    HW160190   7.194   7.712   7.749 -0.3139 -2.5482 -0.2749
19583SOL    HW260191   7.311   7.773   7.823 -2.0982  1.7018 -0.6517
19584SOL     OW60192   1.231   5.388   3.045 -0.3962  0.0077 -0.8619
19584SOL    HW160193   1.210   5.477   3.017 -1.7439  0.3876  1.0890
19584SOL    HW260194   1.187   5.332   2.983  1.2745  0.6199 -2.7089
19585SOL     OW60195   6.209   5.438   8.561 -0.2714  0.0798  0.1325
19585SOL    HW160196   6.221   5.449   8.655  0.9753  0.8517 -0.0988
19585SOL    HW260197   6.119   5.470   8.545 -0.6891 -0.5561  1.1158
19586SOL     OW60198   2.771   2.853   7.733 -0.2605  0.2170 -0.1456
19586SOL    HW160199   2.798   2.902   7.655 -0.2654  1.9981  0.9019
19586SOL    HW260200   2.751   2.921   7.797  3.1409 -1.0769  2.6291
19587SOL     OW60201   7.913   2.888   3.871  0.0596  0.0457 -0.2115
19587SOL    HW160202   7.834   2.912   3.823  0.6631  1.3592 -0.5943
19587SOL    HW260203   7.890   2.899   3.964 -0.3258  0.0200 -0.3049
19588SOL     OW60204   5.109   7.079   7.287  0.2180 -0.2290  0.0265
19588SOL    HW160205   5.055   7.000   7.276 -0.9281  0.8469 -3.1765
19588SOL    HW260206   5.046   7.151   7.286  1.4464  0.8759  0.1271
19589SOL     OW60207   2.429   6.103   4.775 -0.1084 -0.6508 -0.0301
19589SOL    HW160208   2.507   6.140   4.816 -1.4020  1.2072  0.9128
19589SOL    HW260209   2.428   6.012   4.805  0.5303 -0.1190  1.7740
19590SOL     OW60210   1.360   0.550  11.927  0.0741 -0.6644  0.0541
19590SOL    HW160211   1.452   0.562  11.950 -0.2630  1.3979  0.5232
19590SOL    HW260212   1.337   0.627  11.875 -1.9831  0.1509  1.9961
19591SOL     OW60213   6.937   2.959   9.984  0.4865  0.2590  0.3377
19591SOL    HW160214   6.909   3.000   9.902  2.5757 -0.7112 -0.9639
19591SOL    HW260215   6.875   2.990  10.050 -0.4434  2.1640 -1.3439
19592SOL     OW60216   0.802   4.222   4.444 -0.0773  0.1098 -0.1786
19592SOL    HW160217   0.780   4.137   4.405 -1.0174  1.3081 -2.4818
19592SOL    HW260218   0.719   4.271   4.441  0.8405  1.6900 -0.5647
19593SOL     OW60219   3.137   0.127   6.363  0.2655 -0.2465 -0.1563
19593SOL    HW160220   3.113   0.039   6.335 -1.0379 -0.9874  2.9113
19593SOL    HW260221   3.197   0.158   6.295  0.8638 -3.4964 -1.2958
19594SOL     OW60222   0.620   1.755   7.626 -0.3957 -0.2434 -0.2098
19594SOL    HW160223   0.675   1.676   7.626  0.0237 -0.0059 -2.2273
19594SOL    HW260224   0.539   1.727   7.584 -0.3940  0.2870 -0.5724
19595SOL     OW60225   4.562   1.534   0.564  0.8274  0.3183  0.3262
19595SOL    HW160226   4.610   1.571   0.490  1.2618  1.0878  0.9851
19595SOL    HW260227   4.474   1.572   0.557  0.6340 -0.1992 -0.2135
19596SOL     OW60228   1.444   5.826  10.746  0.2138  0.4513  0.2531
19596SOL    HW160229   1.512   5.890  10.725  0.7914  0.1519  1.1687
19596SOL    HW260230   1.385   5.873  10.806 -0.3877  0.7042 -0.5248
19597SOL     OW60231   5.391   1.352  11.508  0.3598 -0.1463 -0.6987
19597SOL    HW160232   5.313   1.339  11.454  0.3174 -1.9739 -0.2683
19597SOL    HW260233   5.404   1.447  11.510 -1.7212  0.1870 -0.9509
19598SOL     OW60234   1.283   2.052  10.543  0.1926  0.3211  0.0999
19598SOL    HW160235   1.263   2.114  10.473  1.0611  0.6197  0.1081
19598SOL    HW260236   1.203   1.999  10.551 -0.9724  2.1310  0.8466
19599SOL     OW60237   7.849   2.069   4.383 -0.3869 -0.5009  0.0469
19599SOL    HW160238   7.906   2.003   4.423  0.0006  0.2423  0.7484
19599SOL    HW260239   7.792   2.099   4.455 -1.2184 -0.7546 -0.4886
19600SOL     OW60240   5.636   5.122   4.729 -0.6479 -0.3367 -0.6240
19600SOL    HW160241   5.634   5.203   4.780 -1.4693 -1.5535  1.3891
19600SOL    HW260242   5.548   5.116   4.691 -0.2389  0.2367 -1.7183
19601SOL     OW60243   1.964   7.554   5.858 -0.2047 -0.0573 -0.1859
19601SOL    HW160244   2.045   7.541   5.808  0.5290  1.0835  0.6627
19601SOL    HW260245   1.894   7.550   5.792  0.5162 -1.1393 -0.9173
19602SOL     OW60246   6.960   6.661   4.690 -1.2193 -0.1643 -0.3706
19602SOL    HW160247   7.020   6.632   4.621 -1.7383 -1.1129 -0.4433
19602SOL    HW260248   6.889   6.597   4.688 -1.0693 -0.4191  1.2759
19603SOL     OW60249   2.248   6.781   7.418  0.4468 -0.5382 -0.0272
19603SOL    HW160250   2.218   6.784   7.509  0.3065 -0.3962 -0.0787
19603SOL    HW260251   2.261   6.688   7.400  1.3305 -0.5053  0.4201
19604SOL     OW60252   1.492   2.003   7.656  0.0202  0.1716 -0.1569
19604SOL    HW160253   1.492   2.084   7.605 -0.3184  0.2835  0.0180
19604SOL    HW260254   1.552   1.945   7.609  1.4968  1.0486  0.5511
19605SOL     OW60255   5.030   3.552  11.268  0.6236  0.1584 -0.0299
19605SOL    HW160256   4.940   3.581  11.250  0.2760 -0.6440  0.3790
19605SOL    HW260257   5.083   3.594  11.200 -0.3577 -1.1684 -1.6743
19606SOL     OW60258   2.376   1.692   7.348  0.1526  0.3071  0.0111
19606SOL    HW160259   2.362   1.672   7.441  3.4400 -0.8657  0.3970
19606SOL    HW260260   2.425   1.616   7.315 -0.9271  0.6907 -2.7349
19607SOL     OW60261   6.955   0.146   4.828 -0.0271  0.2390 -0.2644
19607SOL    HW160262   7.024   0.202   4.791 -0.1761  1.0314  0.6152
19607SOL    HW260263   7.000   0.065   4.853  0.8372  1.1388  1.2758
19608SOL     OW60264   7.532   3.270   1.818 -0.3995  0.2526  0.3023
19608SOL    HW160265   7.487   3.285   1.901 -0.6382 -1.2264  0.4620
19608SOL    HW260266   7.625   3.276   1.840 -0.4592 -0.2614  0.7057
19609SOL     OW60267   1.592   4.271  10.141 -0.4522  0.1568  0.8109
19609SOL    HW160268   1.679   4.299  10.170 -0.6777  0.8379  0.8524
19609SOL    HW260269   1.596   4.276  10.045 -0.3699 -0.0446  0.8040
19610SOL     OW60270   2.089   7.703  11.604  0.0446  0.4046 -0.5402
19610SOL    HW160271   2.041   7.620  11.610  0.1450  0.4079  0.4041
19610SOL    HW260272   2.086   7.739  11.693 -0.6433  1.7824 -1.0923
19611SOL     OW60273   4.172   1.798  12.331  0.3475  0.3359 -0.2373
19611SOL    HW160274   4.121   1.721  12.304  0.4170  0.1689  0.1100
19611SOL    HW260275   4.257   1.763  12.355 -0.2876  0.2310  2.0303
19612SOL     OW60276   3.007   1.097   3.414 -0.4372  0.4003  0.6834
19612SOL    HW160277   3.098   1.102   3.384 -0.3915 -0.9914  0.4984
19612SOL    HW260278   2.957   1.144   3.347 -0.1725 -1.4113 -0.8695
19613SOL     OW60279   4.350   7.197   7.920  0.2277 -0.2864 -0.0698
19613SOL    HW160280   4.303   7.251   7.984 -1.8451 -3.3691  1.2681
19613SOL    HW260281   4.431   7.173   7.965  0.6197  0.7362 -0.2131
19614SOL     OW60282   7.795   4.408   3.556 -0.1943  0.5110  0.4202
19614SOL    HW160283   7.864   4.466   3.586  1.2046 -1.6624  1.7013
19614SOL    HW260284   7.762   4.448   3.476  2.6414  1.5834 -0.3036
19615SOL     OW60285   1.215   6.645   7.523  0.4585  0.7801  0.9208
19615SOL    HW160286   1.228   6.553   7.547 -1.2688  0.0860 -0.5679
19615SOL    HW260287   1.147   6.676   7.584  0.1433  0.6919  0.6171
19616SOL     OW60288   6.959   7.765   3.060  0.3296 -0.2584  0.3821
19616SOL    HW160289   6.938   7.809   2.977 -0.7126  0.8271  1.2006
19616SOL    HW260290   6.989   7.834   3.118  0.2987 -0.8801  1.1637
19617SOL     OW60291   1.299   5.958   1.482 -0.2555  0.4646 -0.0670
19617SOL    HW160292   1.211   5.959   1.443 -1.5215 -0.1616  2.5523
19617SOL    HW260293   1.336   6.044   1.460 -1.0274  0.2985 -2.1907
19618SOL     OW60294   2.698   3.095   7.862 -0.3379 -0.5989  0.1443
19618SOL    HW160295   2.740   3.056   7.939 -1.2092  2.3615  2.3175
19618SOL    HW260296   2.710   3.189   7.874 -3.2219  0.1303 -1.7381
19619SOL     OW60297   4.138   2.324   5.278 -0.5413 -0.2195 -0.0102
19619SOL    HW160298   4.120   2.401   5.333 -0.8560 -0.9454  0.9202
19619SOL    HW260299   4.234   2.323   5.270 -0.4430 -0.4695  1.0780
19620SOL     OW60300   1.129   3.597  12.139 -0.1913  0.5626 -0.0305
19620SOL    HW160301   1.057   3.556  12.090  0.0102 -0.2799  0.3469
19620SOL    HW260302   1.209   3.560  12.100  0.0746  1.9007 -0.8085
19621SOL     OW60303   0.440   1.384   2.393 -0.3004  0.2450  0.1240
19621SOL    HW160304   0.485   1.300   2.386  1.0847  0.9270  0.4818
19621SOL    HW260305   0.510   1.449   2.397 -1.3164  1.3355  1.0491
19622SOL     OW60306   6.307   5.116   9.954  0.2573  0.0684 -0.0671
19622SOL    HW160307   6.400   5.093   9.954  0.4197  0.4437 -2.7160
19622SOL    HW260308   6.293   5.159  10.038  2.2783 -0.6958  0.7222
19623SOL     OW60309   2.982   6.589  10.217 -0.3412  0.1038  0.3120
19623SOL    HW160310   3.063   6.641  10.222 -0.0654 -0.2801 -0.0459
19623SOL    HW260311   3.013   6.499  10.202 -0.8479  0.0333 -0.3432
19624SOL     OW60312   7.642   7.156   8.998 -0.2294  0.6337 -0.4044
19624SOL    HW160313   7.624   7.113   8.915  1.7385 -1.1771  0.0271
19624SOL    HW260314   7.685   7.238   8.974  1.3934 -0.3973 -1.2453
19625SOL     OW60315   4.560   0.481  11.375  0.5986  0.0261  0.4858
19625SOL    HW160316   4.607   0.402  11.348 -0.9587 -1.0631  0.8330
19625SOL    HW260317   4.611   0.515  11.449  1.3263 -0.6054  0.2892
19626SOL     OW60318   5.935   7.007  12.095 -0.0271 -0.2867 -0.2129
19626SOL    HW160319   5.981   6.958  12.163  0.4047  0.3355 -0.0548
19626SOL    HW260320   5.935   7.097  12.125 -1.9796 -0.3667  0.1203
19627SOL     OW60321   0.430   1.421   5.959  0.4117 -0.2782  0.0194
19627SOL    HW160322   0.351   1.456   6.001  0.6881  1.1001 -0.5555
19627SOL    HW260323   0.501   1.443   6.019  0.4194 -1.2606  0.3950
19628SOL     OW60324   5.082   5.659   0.200  0.1717  0.4304  0.8403
19628SOL    HW160325   4.990   5.670   0.223  0.0401  1.0310  0.0673
19628SOL    HW260326   5.124   5.740   0.230  0.0401  1.1187 -0.7341
19629SOL     OW60327   5.612   4.788   4.170  0.1027 -0.1649 -0.4011
19629SOL    HW160328   5.642   4.699   4.187  1.8913  0.6224  0.8646
19629SOL    HW260329   5.628   4.835   4.252  1.3599  1.8596 -1.7300
19630SOL     OW60330   4.498   3.364   3.181 -0.3014  0.6721  0.2258
19630SOL    HW160331   4.433   3.345   3.248 -0.5153  1.3452  0.2127
19630SOL    HW260332   4.485   3.296   3.115 -0.0673 -0.0225  0.8663
19631SOL     OW60333   1.100   3.600   3.666  0.5041 -0.5477  0.1774
19631SOL    HW160334   1.140   3.521   3.630 -0.1600 -0.6974 -0.2449
19631SOL    HW260335   1.021   3.569   3.710  0.4968 -0.1716  0.4374
19632SOL     OW60336   4.525   7.311  11.494  0.5131  0.1254  0.0530
19632SOL    HW160337   4.570   7.253  11.432 -1.5921 -0.8428 -0.6953
19632SOL    HW260338   4.494   7.252  11.563  2.1609  1.0833  1.6712
19633SOL     OW60339   4.356   0.635   8.923  0.0690 -0.0973  0.0108
19633SOL    HW160340   4.293   0.704   8.905  0.6511  0.0292 -1.7262
19633SOL    HW260341   4.398   0.618   8.838  0.1070 -2.4094  0.4211
19634SOL     OW60342   3.284   5.757   6.939  0.4239 -0.0007  0.4013
19634SOL    HW160343   3.370   5.770   6.980  0.7237 -0.5426 -0.0372
19634SOL    HW260344   3.230   5.717   7.007  0.5604  0.2175  0.6368
19635SOL     OW60345   4.891   0.852   8.009 -0.1324 -0.2191 -0.5726
19635SOL    HW160346   4.891   0.932   8.060 -0.2503 -0.6382  0.0933
19635SOL    HW260347   4.902   0.782   8.073 -2.5346 -0.9251 -0.8339
19636SOL     OW60348   1.197   3.178   4.209  0.1372 -0.4079  0.2539
19636SOL    HW160349   1.167   3.108   4.267 -2.5940 -1.2211 -1.9413
19636SOL    HW260350   1.125   3.241   4.207  1.3708  1.0689 -0.0445
19637SOL     OW60351   3.480   5.483   6.915 -0.8909 -0.2054  0.0187
19637SOL    HW160352   3.544   5.474   6.986 -0.6936  1.7815  0.1438
19637SOL    HW260353   3.439   5.568   6.930 -1.9470 -0.4251 -1.3849
19638SOL     OW60354   4.151   2.191   6.987 -0.4201  0.1284  0.8415
19638SOL    HW160355   4.056   2.201   6.981 -0.9143 -2.0988  3.1229
19638SOL    HW260356   4.164   2.127   7.057  2.7472 -0.3247  0.0084
19639SOL     OW60357   6.367   6.880  10.797 -0.1265  0.0681 -0.3977
19639SOL    HW160358   6.389   6.816  10.865 -1.2520  1.0499  0.9548
19639SOL    HW260359   6.425   6.954  10.813 -2.3744  1.5600  1.5038
19640SOL     OW60360   4.941   1.918  11.679 -0.0652  0.4336  0.4385
19640SOL    HW160361   5.017   1.867  11.650 -0.0072 -0.4451  2.0294
19640SOL    HW260362   4.865   1.865  11.652 -0.1053  0.9684 -0.5274
19641SOL     OW60363   0.869   7.177   7.492  0.5497 -0.3668 -0.5189
19641SOL    HW160364   0.883   7.083   7.497  2.2935 -0.1592 -0.6129
19641SOL    HW260365   0.852   7.204   7.582 -2.1916 -1.0079 -0.7596
19642SOL     OW60366   3.228   4.902   3.782  0.0838  0.1962  0.2855
19642SOL    HW160367   3.263   4.835   3.723  1.2535  1.4447 -0.5102
19642SOL    HW260368   3.301   4.962   3.796 -0.4316  0.4573  2.3018
19643SOL     OW60369   0.046   4.362   4.730  0.4029  0.3153  0.5441
19643SOL    HW160370  -0.036   4.370   4.779  0.2253 -1.6642  0.6395
19643SOL    HW260371   0.085   4.449   4.735 -2.1124  1.5985 -0.2966
19644SOL     OW60372   7.354   0.809   5.041  0.2419  0.1116 -0.7922
19644SOL    HW160373   7.347   0.803   4.946 -1.6550 -2.6717 -0.6181
19644SOL    HW260374   7.435   0.762   5.061  1.0119  1.2961 -1.0112
19645SOL     OW60375   3.777   0.083   6.995  0.1010 -0.2467  0.2038
19645SOL    HW160376   3.853   0.073   6.938 -0.2690  0.7092 -0.4719
19645SOL    HW260377   3.737   0.165   6.968 -1.2323 -0.7813  0.4822
19646SOL     OW60378   2.190   0.377   0.394  1.1647  0.1548  0.1949
19646SOL    HW160379   2.139   0.415   0.323 -0.6752  0.6125  1.6776
19646SOL    HW260380   2.185   0.283   0.380 -1.3260  0.0832  1.0122
19647SOL     OW60381   2.245   4.105  11.083 -0.0203  0.0706 -0.2449
19647SOL    HW160382   2.239   4.088  11.177  0.6346  1.9977  0.2078
19647SOL    HW260383   2.231   4.020  11.042 -1.2557 -0.6494  1.5505
19648SOL     OW60384   3.746   5.891  11.792 -0.1887  0.6709 -0.1053
19648SOL    HW160385   3.718   5.937  11.713  0.2488  0.4166 -0.4174
19648SOL    HW260386   3.839   5.871  11.776 -0.6612 -1.3973 -0.5252
19649SOL     OW60387   2.063   5.214   2.198  0.6643  0.0006  0.0439
19649SOL    HW160388   2.033   5.302   2.175  1.3863 -0.1757 -1.8072
19649SOL    HW260389   2.158   5.218   2.188  0.9520 -0.3909  2.2580
19650SOL     OW60390   3.589   0.001   9.683  0.3237 -0.0472 -0.1700
19650SOL    HW160391   3.601   0.092   9.658 -0.3809  0.4487  1.1625
19650SOL    HW260392   3.573  -0.046   9.601  2.9765  0.5933 -1.1345
19651SOL     OW60393   0.544   6.677   5.822  0.4013  0.1386 -0.0486
19651SOL    HW160394   0.565   6.767   5.796 -1.1550  0.7106  0.6024
19651SOL    HW260395   0.561   6.675   5.916  4.2455 -1.4170 -0.5888
19652SOL     OW60396   7.615   7.635   8.440  0.2896  0.3660  0.2843
19652SOL    HW160397   7.610   7.730   8.453  0.8079  0.8747 -2.5609
19652SOL    HW260398   7.530   7.612   8.402  0.5869 -0.0969 -0.1143
19653SOL     OW60399   3.727   4.620   3.522  0.5698  0.0730 -0.5280
19653SOL    HW160400   3.667   4.557   3.562  1.1859  0.5516  1.2640
19653SOL    HW260401   3.748   4.583   3.436 -1.9544 -0.2755 -1.0673
19654SOL     OW60402   7.136   7.014   3.826 -0.0632  0.2668  0.4362
19654SOL    HW160403   7.062   7.021   3.765 -0.1008 -0.8403  0.3445
19654SOL    HW260404   7.206   6.974   3.774  0.4610  0.8612  0.6606
19655SOL     OW60405   4.086   3.755   4.566 -0.1994 -0.7672 -0.2456
19655SOL    HW160406   4.155   3.821   4.576 -0.2026 -0.8207  0.1663
19655SOL    HW260407   4.117   3.698   4.497  0.2968 -0.9430  0.1194
19656SOL     OW60408   5.164   4.792   7.554  0.7080  0.2958  0.1247
19656SOL    HW160409   5.225   4.771   7.625  0.6452  0.1567  0.1377
19656SOL    HW260410   5.091   4.732   7.566 -0.0220  1.3061  0.8479
19657SOL     OW60411   1.000   5.715   5.091 -0.0975 -0.1291 -0.3078
19657SOL    HW160412   1.020   5.632   5.049 -0.8238  0.3407 -1.6369
19657SOL    HW260413   1.039   5.708   5.178 -0.6892 -2.0936 -0.1562
19658SOL     OW60414   0.126   5.673   9.030  0.6006  0.1273 -0.3269
19658SOL    HW160415   0.208   5.713   9.057 -0.0663  0.6293  1.0679
19658SOL    HW260416   0.142   5.641   8.942  2.0910  0.7757 -0.3101
19659SOL     OW60417   3.223   0.525   1.248  0.3585  0.6503 -0.3875
19659SOL    HW160418   3.137   0.512   1.208  1.0427  0.9331 -2.0376
19659SOL    HW260419   3.276   0.454   1.214  1.1994  1.4124 -0.7043
19660SOL     OW60420   3.942   2.328   2.700  0.3678  0.2470  0.5245
19660SOL    HW160421   3.985   2.251   2.665  0.6711  0.6232  0.0554
19660SOL    HW260422   3.868   2.344   2.642  0.9668  0.9675 -0.0681
19661SOL     OW60423   1.378   1.336   8.890  0.6057 -0.5938  0.5892
19661SOL    HW160424   1.405   1.322   8.799  4.1534 -2.6889  1.7365
19661SOL    HW260425   1.323   1.261   8.911 -2.0069  0.9624 -0.2802
19662SOL     OW60426   2.730   7.292   1.455  0.0189 -0.3193 -0.2089
19662SOL    HW160427   2.742   7.321   1.365 -0.1779 -1.5849 -0.6554
19662SOL    HW260428   2.736   7.373   1.507  0.6008  0.3611 -1.2982
19663SOL     OW60429   6.954   4.083   8.387  0.2737  0.1203 -0.1173
19663SOL    HW160430   6.954   4.005   8.442 -0.1710 -1.2009 -1.8798
19663SOL    HW260431   6.934   4.050   8.299  0.7411  2.1459 -1.0452
19664SOL     OW60432   3.060   1.681  11.220  0.1804 -0.2688 -0.7280
19664SOL    HW160433   3.100   1.684  11.307 -0.1765 -0.8396 -0.5385
19664SOL    HW260434   2.966   1.682  11.236  0.0219 -3.1684 -0.9292
19665SOL     OW60435   2.320   2.277   4.574  0.1950 -0.3916  0.1519
19665SOL    HW160436   2.249   2.214   4.588  0.8416 -0.9896  0.7860
19665SOL    HW260437   2.275   2.356   4.544 -0.8719 -0.3619  1.7068
19666SOL     OW60438   7.875   0.548   8.979 -0.4577 -0.2926  0.3063
19666SOL    HW160439   7.888   0.529   8.886 -0.2103 -0.0130  0.2798
19666SOL    HW260440   7.935   0.488   9.024 -0.6193 -0.4682  0.2922
19667SOL     OW60441   6.999   5.610   9.534 -0.1626  0.4302 -0.1458
19667SOL    HW160442   7.021   5.556   9.458  1.8934  0.5071  0.3336
19667SOL    HW260443   6.981   5.547   9.604  1.3973  0.3097  0.1883
19668SOL     OW60444   7.543   7.645   5.121 -0.4605 -0.5736  0.7383
19668SOL    HW160445   7.465   7.696   5.141 -0.5457 -0.1934 -0.4957
19668SOL    HW260446   7.608   7.675   5.184 -0.7994  0.3633  0.6617
19669SOL     OW60447   1.055   1.891   1.652 -0.3191  0.7504 -0.0525
19669SOL    HW160448   1.129   1.952   1.654 -0.9988  1.5952 -0.2953
19669SOL    HW260449   1.092   1.810   1.617  0.2583  1.4871 -1.2023
19670SOL     OW60450   5.573   3.549  10.205 -0.4028 -0.2230  0.3069
19670SOL    HW160451   5.564   3.542  10.110  0.9437  0.8470  0.0708
19670SOL    HW260452   5.483   3.549  10.238 -0.8983 -0.0579 -1.0080
19671SOL     OW60453   0.012   4.254   2.547 -0.2380  0.1788 -0.5897
19671SOL    HW160454  -0.003   4.224   2.457  0.5789 -1.8821 -0.1186
19671SOL    HW260455   0.088   4.202   2.576 -0.2746  1.0501  1.1696
19672SOL     OW60456   4.554   2.161  10.589 -0.4128  0.0496 -0.4800
19672SOL    HW160457   4.576   2.107  10.512 -0.5375 -1.9230  0.8105
19672SOL    HW260458   4.526   2.245  10.552 -0.2811 -0.7741 -2.5804
19673SOL     OW60459   2.039   4.848  10.823  0.1475 -0.4962 -0.4092
19673SOL    HW160460   2.087   4.918  10.779 -0.1886  1.3872  1.9917
19673SOL    HW260461   2.056   4.863  10.916 -1.2494 -2.6811  0.2634
19674SOL     OW60462   5.560   7.058  12.251  0.3621  0.2268  0.0190
19674SOL    HW160463   5.619   7.121  12.291  1.3119 -0.3988 -0.3404
19674SOL    HW260464   5.497   7.035  12.319  0.2744  1.2096  0.2814
19675SOL     OW60465   0.340   3.823   8.677  0.2309  0.1342 -0.4742
19675SOL    HW160466   0.287   3.749   8.707 -1.1066  1.8488  1.7450
19675SOL    HW260467   0.277   3.882   8.636  0.6939  1.3609  0.5049
19676SOL     OW60468   4.972   3.998  10.009 -0.0548  0.4012  0.0815
19676SOL    HW160469   4.935   3.910  10.012 -1.7412  1.0919  0.9386
19676SOL    HW260470   5.066   3.984   9.996 -0.5877 -1.4259 -2.7859
19677SOL     OW60471   3.647   4.801   1.213  0.0435  0.6968 -0.3240
19677SOL    HW160472   3.656   4.891   1.244  0.2975  0.5484  0.0426
19677SOL    HW260473   3.719   4.754   1.255 -0.1960  0.2825 -0.3677
19678SOL     OW60474   4.014   7.317   6.373  0.5465  0.2945 -0.2308
19678SOL    HW160475   3.989   7.244   6.430 -0.2600 -0.2645 -1.2408
19678SOL    HW260476   4.108   7.304   6.357  0.2703 -1.0115 -1.0045
19679SOL     OW60477   6.798   2.045   5.720  0.1980 -0.4589 -0.0001
19679SOL    HW160478   6.863   1.990   5.677  0.7792  0.5155 -0.4049
19679SOL    HW260479   6.848   2.098   5.782 -0.1237  0.6075 -0.6191
19680SOL     OW60480   6.326   4.766   0.933 -0.0797  0.6175  0.0653
19680SOL    HW160481   6.343   4.850   0.892  0.8971  0.9185  1.0282
19680SOL    HW260482   6.252   4.730   0.885 -1.1652  2.4533  0.2763
19681SOL     OW60483   3.463   4.061   4.651  0.2617 -0.0455  0.0764
19681SOL    HW160484   3.528   4.128   4.627  0.2939  0.2839  1.0323
19681SOL    HW260485   3.388   4.110   4.684 -0.5864 -0.4184 -1.2296
19682SOL     OW60486   1.460   2.308   4.828 -0.0787 -0.0963 -0.5043
19682SOL    HW160487   1.532   2.336   4.773  0.4846  1.0076  0.7392
19682SOL    HW260488   1.466   2.363   4.906 -2.7530  0.6003 -0.6893
19683SOL     OW60489   1.900   4.656   1.342  0.1735 -0.0674 -0.4268
19683SOL    HW160490   1.807   4.641   1.326 -0.0353 -0.9314  1.3179
19683SOL    HW260491   1.913   4.748   1.321 -1.2799  0.2903  0.0834
19684SOL     OW60492   2.576   2.227  11.998  0.2017  0.0053  0.5226
19684SOL    HW160493   2.585   2.147  11.947 -0.8856  0.2961 -0.1521
19684SOL    HW260494   2.625   2.293  11.949  2.1091 -0.4665  1.6874
19685SOL     OW60495   5.824   3.479   9.936  0.2520 -0.6258  0.0374
19685SOL    HW160496   5.897   3.505   9.993 -0.0826  0.1521  0.1244
19685SOL    HW260497   5.801   3.391   9.966  0.5309 -0.4962  0.6604
19686SOL     OW60498   1.044   1.667  10.806 -0.2783  0.4639  0.9505
19686SOL    HW160499   1.139   1.666  10.822 -0.2965  0.7001  1.0778
19686SOL    HW260500   1.017   1.755  10.831 -0.4191  0.6307  0.2402
19687SOL     OW60501   3.128   6.708  11.237  0.3984 -0.4280 -0.6536
19687SOL    HW160502   3.118   6.803  11.243  0.7824 -0.4580  1.3113
19687SOL    HW260503   3.051   6.674  11.282  1.4212 -0.9625  0.7605
19688SOL     OW60504   5.841   5.348   9.685 -0.1046 -0.3206  0.4180
19688SOL    HW160505   5.932   5.348   9.656 -0.7031  0.9268 -1.5987
19688SOL    HW260506   5.839   5.409   9.758  0.3796  1.0245 -0.6604
19689SOL     OW60507   0.902   4.480  12.006 -0.6202 -0.3086 -0.0130
19689SOL    HW160508   0.889   4.389  12.029  0.4206 -0.3547  0.4481
19689SOL    HW260509   0.940   4.520  12.084  1.2488 -0.0597 -0.9688
19690SOL     OW60510   3.237   4.853  11.801 -0.0593 -0.2020 -0.3954
19690SOL    HW160511   3.237   4.793  11.875 -0.8703  1.1099  0.7400
19690SOL    HW260512   3.214   4.799  11.725  2.1272 -1.8366  0.0224
19691SOL     OW60513   5.300   5.213   2.429  0.4661 -0.5862  0.4678
19691SOL    HW160514   5.353   5.189   2.353 -0.4311 -1.5681  0.1317
19691SOL    HW260515   5.344   5.291   2.465  2.4082 -1.6471  0.5137
19692SOL     OW60516   4.281   4.671   5.849  0.0473  0.4317  0.2916
19692SOL    HW160517   4.368   4.697   5.820 -0.2391 -0.4101 -1.4273
19692SOL    HW260518   4.275   4.705   5.939  1.3659  2.2513 -0.2424
19693SOL     OW60519   6.756   7.036  10.093 -0.1178 -0.0587 -0.8527
19693SOL    HW160520   6.774   6.997  10.178 -1.3846  0.6228 -0.2419
19693SOL    HW260521   6.840   7.035  10.048  0.2816 -1.7022 -0.1457
19694SOL     OW60522   6.262   2.402   0.556 -0.1289  0.4953  1.3001
19694SOL    HW160523   6.216   2.352   0.489 -0.7099  2.0644  0.4729
19694SOL    HW260524   6.355   2.389   0.535 -0.2364 -0.7604  1.5269
19695SOL     OW60525   7.247   1.167   1.683  0.0065  0.0667 -0.3281
19695SOL    HW160526   7.325   1.171   1.738  0.8466 -0.3099 -1.4412
19695SOL    HW260527   7.206   1.083   1.705 -1.2968  1.1656  1.7691
19696SOL     OW60528   5.748   4.066   3.833  0.3108  0.1606  0.2046
19696SOL    HW160529   5.702   4.074   3.750 -0.7715 -0.2500  0.7467
19696SOL    HW260530   5.826   4.015   3.812 -0.0469 -0.0968 -0.5300
19697SOL     OW60531   3.086   0.920   5.630 -0.0332 -0.0776 -0.8993
19697SOL    HW160532   3.170   0.949   5.666  0.5242 -1.2781 -1.1768
19697SOL    HW260533   3.022   0.985   5.662  0.9262  0.6268 -0.3582
19698SOL     OW60534   0.226   1.220   1.068  0.0067 -0.1437  0.1195
19698SOL    HW160535   0.247   1.275   1.144  0.6523 -0.2287  0.0052
19698SOL    HW260536   0.131   1.212   1.071 -0.0256  0.3133  0.6024
19699SOL     OW60537   7.107   1.251   8.467  0.0218 -0.0015 -0.1277
19699SOL    HW160538   7.046   1.200   8.413  1.1698  0.7024 -2.2197
19699SOL    HW260539   7.193   1.232   8.429  0.6275  2.3711 -0.0750
19700SOL     OW60540   7.594   4.186   0.553 -0.1346  0.1314  0.4709
19700SOL    HW160541   7.640   4.269   0.539  2.6868 -1.4052 -0.2626
19700SOL    HW260542   7.583   4.150   0.465  1.4910 -1.5777  0.8900
19701SOL     OW60543   4.812   3.648   5.812  0.2954 -0.3512 -0.0742
19701SOL    HW160544   4.894   3.669   5.766  0.9535 -0.3275  1.0628
19701SOL    HW260545   4.794   3.726   5.865  1.9579 -1.9131  3.0631
19702SOL     OW60546   0.601   4.650   9.849 -0.1928  0.4730  0.5523
19702SOL    HW160547   0.669   4.715   9.835  0.3630 -0.1072  0.5211
19702SOL    HW260548   0.643   4.566   9.829 -0.5570  0.0002  1.6951
19703SOL     OW60549   4.813   3.993   5.150 -0.0051  0.5804 -0.1436
19703SOL    HW160550   4.887   3.943   5.185 -0.8388 -0.5067  0.1049
19703SOL    HW260551   4.836   4.085   5.167 -0.3428  0.1567  3.3467
19704SOL     OW60552   2.324   2.897   9.515  0.7490 -0.1123 -0.0501
19704SOL    HW160553   2.290   2.844   9.443  1.5829 -0.3196 -0.3001
19704SOL    HW260554   2.249   2.949   9.544  0.1170 -0.8567 -0.3153
19705SOL     OW60555   6.484   7.569   3.240 -0.1365  0.5176  0.3057
19705SOL    HW160556   6.460   7.547   3.330  2.2873 -3.7747  0.1840
19705SOL    HW260557   6.569   7.612   3.248 -0.3854  1.0645  0.0667
19706SOL     OW60558   3.859   6.506   0.453  0.4733  0.1341  0.6273
19706SOL    HW160559   3.893   6.594   0.466  0.9093 -0.1644  1.7037
19706SOL    HW260560   3.766   6.518   0.435  0.7224  0.8551 -0.2601
19707SOL     OW60561   2.771   5.665   1.574 -0.2576  0.0958  0.0147
19707SOL    HW160562   2.801   5.696   1.659  0.6822 -1.3329  0.2278
19707SOL    HW260563   2.757   5.745   1.523  0.3409  0.9237  1.1076
19708SOL     OW60564   7.734   7.693  10.843  0.5155 -0.1018 -0.4364
19708SOL    HW160565   7.717   7.696  10.749  2.6854 -0.2756 -0.8785
19708SOL    HW260566   7.822   7.656  10.851  1.6752  2.6926  1.4721
19709SOL     OW60567   6.819   2.117   7.702  0.2630 -0.2770 -0.2237
19709SOL    HW160568   6.789   2.206   7.685  0.8995 -0.0459 -0.1633
19709SOL    HW260569   6.747   2.061   7.674 -0.6461  0.2997  0.8596
19710SOL     OW60570   1.637   3.192   8.519 -0.5052 -0.1036  0.7921
19710SOL    HW160571   1.578   3.117   8.509  0.8885 -1.2382  0.7977
19710SOL    HW260572   1.655   3.220   8.429 -1.3557  0.4980  0.8054
19711SOL     OW60573   7.844   1.906   1.478  0.1117  0.4734 -0.1112
19711SOL    HW160574   7.749   1.905   1.488  0.2542  0.7442  1.6141
19711SOL    HW260575   7.869   1.998   1.487  0.3673  0.7534 -2.9579
19712SOL     OW60576   7.848   0.264   7.642  0.1553  0.3310 -0.0094
19712SOL    HW160577   7.934   0.299   7.619 -0.9820  3.1215 -0.3982
19712SOL    HW260578   7.837   0.286   7.734 -0.5051  0.8658 -0.2111
19713SOL     OW60579   1.973   2.821   0.447  0.1697  0.0647 -0.5055
19713SOL    HW160580   1.950   2.871   0.368 -2.4813  0.7244  0.5604
19713SOL    HW260581   1.982   2.888   0.515  1.2657 -0.5903  0.0145
19714SOL     OW60582   6.034   6.007   2.020 -0.1852  0.0667 -0.2007
19714SOL    HW160583   5.967   5.944   2.045  0.2788 -0.4422 -0.2297
19714SOL    HW260584   6.051   5.990   1.928  1.0215 -0.8060  0.1486
19715SOL     OW60585   1.491   2.978  10.161 -0.0519 -0.0957  0.0420
19715SOL    HW160586   1.517   2.976  10.253  0.5702  0.0672 -0.1262
19715SOL    HW260587   1.432   3.053  10.155 -0.6687 -0.5375  0.4502
19716SOL     OW60588   5.253   4.291   4.376  0.2903  0.2833  0.5675
19716SOL    HW160589   5.231   4.245   4.294  0.7351  1.6872 -0.3827
19716SOL    HW260590   5.335   4.252   4.404 -0.3122 -0.8217  0.8458
19717SOL     OW60591   6.599   0.211   8.936 -0.3083  0.3808 -0.3678
19717SOL    HW160592   6.533   0.262   8.984 -2.3955 -1.0868 -1.5420
19717SOL    HW260593   6.643   0.276   8.881  1.1729  1.8545  2.3371
19718SOL     OW60594   5.721   7.583   2.672  0.3108 -0.6150 -0.0502
19718SOL    HW160595   5.712   7.490   2.696  1.7221 -1.0852 -1.1883
19718SOL    HW260596   5.778   7.582   2.594 -1.5172  1.0268 -1.5157
19719SOL     OW60597   0.151   3.577  10.838  0.2271 -0.2240 -0.2211
19719SOL    HW160598   0.234   3.532  10.854 -0.3631 -2.1901 -2.1493
19719SOL    HW260599   0.098   3.558  10.916  0.8718 -0.7193  0.1044
19720SOL     OW60600   1.164   6.263   1.574 -0.3719  0.0321  0.0865
19720SOL    HW160601   1.127   6.351   1.566 -1.1446 -0.3944 -1.2218
19720SOL    HW260602   1.236   6.262   1.511  0.3573  0.0745  0.9035
19721SOL     OW60603   3.476   6.791   4.465 -0.0670  0.6304 -0.4455
19721SOL    HW160604   3.533   6.833   4.401 -0.7001  1.1079 -0.7011
19721SOL    HW260605   3.395   6.773   4.418 -0.3370  0.4718  0.0678
19722SOL     OW60606   5.644   4.450  10.055  0.4895  0.8420 -0.1271
19722SOL    HW160607   5.593   4.390  10.109  0.3381  0.5596 -0.5779
19722SOL    HW260608   5.621   4.537  10.087 -0.3679  0.7221 -0.4077
19723SOL     OW60609   2.241   6.697   5.791 -0.1249  0.6783  0.2161
19723SOL    HW160610   2.272   6.688   5.881  0.6384  2.3548  0.1492
19723SOL    HW260611   2.319   6.716   5.739 -0.5646 -0.1669 -0.8046
19724SOL     OW60612   4.622   4.148   7.483  0.3422  0.3884  0.1990
19724SOL    HW160613   4.665   4.074   7.526  0.9267 -0.8143 -2.2567
19724SOL    HW260614   4.587   4.111   7.402 -0.6349  2.5239 -0.4255
19725SOL     OW60615   5.677   5.869   7.125  0.1405  0.0645  0.5030
19725SOL    HW160616   5.715   5.792   7.083 -0.0559 -0.1835  0.7764
19725SOL    HW260617   5.584   5.850   7.132 -0.4519  1.5784 -2.1393
19726SOL     OW60618   7.458   1.115   7.484  0.6242 -0.4376  0.6772
19726SOL    HW160619   7.445   1.115   7.579 -0.5497  1.0407  0.5524
19726SOL    HW260620   7.504   1.033   7.466  1.2222 -0.5578  2.5587
19727SOL     OW60621   3.733   2.127   2.961 -0.1802 -0.2526  0.0920
19727SOL    HW160622   3.784   2.055   2.998 -1.1165 -1.6395 -1.2288
19727SOL    HW260623   3.785   2.205   2.981  0.0132 -1.0232  3.1248
19728SOL     OW60624   7.899   6.680   8.035 -0.1377  0.1408  0.3363
19728SOL    HW160625   7.815   6.645   8.009 -0.8131  0.0126  2.4851
19728SOL    HW260626   7.959   6.606   8.031 -0.7430 -0.4272  1.3275
19729SOL     OW60627   5.514   1.537   6.210  0.1594  0.2940  0.1177
19729SOL    HW160628   5.484   1.628   6.219  0.2389  0.5135 -1.5345
19729SOL    HW260629   5.556   1.518   6.294 -0.9449  1.3569  0.9506
19730SOL     OW60630   2.466   4.840   7.856 -0.1509  0.5177 -0.2087
19730SOL    HW160631   2.390   4.865   7.909 -0.6571  0.1255 -0.7328
19730SOL    HW260632   2.495   4.757   7.893 -0.4077  0.3234 -0.4315
19731SOL     OW60633   6.896   5.000   9.925 -0.0265  0.5133  0.1689
19731SOL    HW160634   6.969   4.953   9.886 -2.2069 -1.3986 -1.9248
19731SOL    HW260635   6.839   5.021   9.851 -1.7899  1.5692  1.7458
19732SOL     OW60636   3.906   3.706   5.854 -0.4914 -0.3028  0.2267
19732SOL    HW160637   3.822   3.676   5.822 -0.3779 -1.0981  0.6633
19732SOL    HW260638   3.898   3.705   5.950 -0.6663  1.5724  0.2840
19733SOL     OW60639   2.003   6.771  10.797 -0.1801 -0.2387 -0.2488
19733SOL    HW160640   2.030   6.829  10.726 -1.6188 -0.1003 -0.7106
19733SOL    HW260641   2.066   6.698  10.794  1.1397  0.8591 -0.1957
19734SOL     OW60642   1.024   4.643   7.730 -0.5316  0.1734 -0.6863
19734SOL    HW160643   1.026   4.551   7.756 -0.1038  0.3391 -0.1075
19734SOL    HW260644   1.048   4.690   7.809  2.1344  0.6498 -1.6756
19735SOL     OW60645   1.403   5.242  12.063  0.0689  0.2587 -0.7860
19735SOL    HW160646   1.406   5.274  11.973 -0.4808  3.3940  0.2177
19735SOL    HW260647   1.475   5.285  12.108 -0.2907 -0.4303  0.5242
19736SOL     OW60648   5.383   1.466   2.794 -0.6787  0.3536 -0.5179
19736SOL    HW160649   5.438   1.533   2.833  1.8228 -1.8848  0.1130
19736SOL    HW260650   5.395   1.478   2.699 -1.1458  1.4131 -0.4615
19737SOL     OW60651   1.633   0.385   7.120 -0.0889  0.4465  0.0185
19737SOL    HW160652   1.706   0.419   7.068 -1.2774  2.1416 -0.6351
19737SOL    HW260653   1.626   0.293   7.094  1.7117  0.2741  0.0184
19738SOL     OW60654   7.966   2.638   2.761 -0.0363  0.0433 -0.3029
19738SOL    HW160655   8.058   2.656   2.741  0.3040 -0.8266  0.4302
19738SOL    HW260656   7.967   2.553   2.805 -1.1895  0.0562 -0.2204
19739SOL     OW60657   2.079   3.936   1.437  0.6697 -0.9070  0.2499
19739SOL    HW160658   2.146   4.004   1.440  0.8358 -1.0873  1.2032
19739SOL    HW260659   2.028   3.955   1.359 -0.0433  1.0420  1.1263
19740SOL     OW60660   1.637   0.807   8.735 -0.7409  0.1184 -0.0732
19740SOL    HW160661   1.652   0.813   8.641 -1.5296 -0.4437 -0.2469
19740SOL    HW260662   1.661   0.717   8.757 -4.9325 -1.3620 -0.6321
19741SOL     OW60663   5.320   6.202   4.662 -0.2308  0.3200 -0.2566
19741SOL    HW160664   5.412   6.221   4.681 -0.8819  1.9443  1.7588
19741SOL    HW260665   5.286   6.284   4.624 -0.8928 -0.1953 -0.8061
19742SOL     OW60666   0.208   7.291   6.774 -0.0568  0.2610  0.2700
19742SOL    HW160667   0.190   7.385   6.765 -1.2866 -0.0147 -0.3498
19742SOL    HW260668   0.301   7.282   6.751  0.7693  1.6201  2.7162
19743SOL     OW60669   1.443   2.730   7.457 -0.0458  0.6798  0.1882
19743SOL    HW160670   1.367   2.787   7.472  0.2929  1.4750 -0.9450
19743SOL    HW260671   1.514   2.791   7.434  1.3848  0.0999  2.7177
19744SOL     OW60672   1.409   6.353   7.111 -0.4910  0.2938 -0.1075
19744SOL    HW160673   1.496   6.372   7.145 -0.5926  3.8249 -1.3761
19744SOL    HW260674   1.417   6.268   7.068  2.0445  0.0991  0.6001
19745SOL     OW60675   5.408   1.370   5.250  0.7245  0.4567 -0.0672
19745SOL    HW160676   5.431   1.438   5.312  1.2915 -0.7994  1.1515
19745SOL    HW260677   5.454   1.292   5.280  2.4258  0.1540 -3.0300
19746SOL     OW60678   1.872   1.161   9.360  0.0885 -0.5780  0.0648
19746SOL    HW160679   1.934   1.111   9.414 -1.1404 -0.2130  1.8987
19746SOL    HW260680   1.859   1.106   9.283  1.6345 -1.2966  0.2641
19747SOL     OW60681   6.316   4.464  12.207 -0.4018 -0.5182 -0.2409
19747SOL    HW160682   6.334   4.531  12.141  0.6386  0.8848  1.3957
19747SOL    HW260683   6.402   4.432  12.233 -0.6632  0.2099  1.6525
19748SOL     OW60684   3.749   6.121  11.941  0.6643  0.8424  0.6833
19748SOL    HW160685   3.715   6.176  11.871  2.0459  0.3888 -0.3941
19748SOL    HW260686   3.748   6.032  11.904  1.5791  0.6200  1.1682
19749SOL     OW60687   6.967   6.606   0.633 -0.1331  0.1942  0.3546
19749SOL    HW160688   6.990   6.695   0.662 -0.2708  0.3895 -0.1234
19749SOL    HW260689   7.006   6.598   0.546  1.2790 -0.8120  1.0437
19750SOL     OW60690   0.966   0.358   2.149 -0.3692 -0.5724 -0.2782
19750SOL    HW160691   1.025   0.425   2.184 -1.0539 -0.4352  0.6426
19750SOL    HW260692   0.923   0.400   2.075  1.0361 -0.8406 -1.2952
19751SOL     OW60693   7.657   0.743   1.297 -0.4068 -0.6702 -0.4482
19751SOL    HW160694   7.603   0.806   1.344 -0.3952  0.3632 -1.7493
19751SOL    HW260695   7.662   0.668   1.355 -2.0818 -0.2518  0.3125
19752SOL     OW60696   6.270   6.700   0.597  0.1539  0.0359 -0.0379
19752SOL    HW160697   6.187   6.713   0.641 -0.0602  0.8281 -0.6635
19752SOL    HW260698   6.298   6.788   0.570  2.5685  0.2191  2.5834
19753SOL     OW60699   4.525   5.410   7.076 -0.4844 -0.4811  0.0331
19753SOL    HW160700   4.551   5.375   6.991 -0.8243 -2.6216  0.7431
19753SOL    HW260701   4.430   5.411   7.074 -0.5191 -1.1881  0.5906
19754SOL     OW60702   6.521   3.762   3.854  0.6488  0.1800 -0.0413
19754SOL    HW160703   6.494   3.769   3.762 -0.6585 -3.0584 -0.0353
19754SOL    HW260704   6.452   3.809   3.902 -0.0690 -0.2933 -0.5799
19755SOL     OW60705   3.970   2.762   7.293 -0.3909  0.3498  0.3685
19755SOL    HW160706   3.997   2.730   7.379  1.3249 -1.3619 -0.7300
19755SOL    HW260707   3.875   2.751   7.292 -0.2622 -1.1205  1.4705
19756SOL     OW60708   0.935   2.222  10.792 -0.2694 -0.1001 -0.7920
19756SOL    HW160709   0.937   2.237  10.698  1.0249  2.5666 -0.4467
19756SOL    HW260710   1.027   2.224  10.818 -0.4026 -2.9610  0.3394
19757SOL     OW60711   1.144   5.279  12.137 -0.1708 -0.0300  0.6746
19757SOL    HW160712   1.086   5.289  12.061  0.3859  3.1036  0.5121
19757SOL    HW260713   1.232   5.276  12.099  0.2044  2.7614  1.1117
19758SOL     OW60714   1.240   2.556   7.760 -0.6013  0.0489  0.0573
19758SOL    HW160715   1.190   2.617   7.705  2.2099  0.0724 -2.7378
19758SOL    HW260716   1.218   2.469   7.725  1.9213  0.1172 -1.9724
19759SOL     OW60717   4.106   3.883   0.128  0.2358 -0.1141 -0.0493
19759SOL    HW160718   4.041   3.915   0.065  0.3119  0.0185 -0.0625
19759SOL    HW260719   4.181   3.942   0.117 -0.3639  0.9739  1.3344
19760SOL     OW60720   6.260   0.852   6.057 -0.3231 -0.1705  0.3094
19760SOL    HW160721   6.341   0.898   6.040 -1.1199  0.4725 -2.3216
19760SOL    HW260722   6.193   0.920   6.057 -0.8785 -0.5796  3.2233
19761SOL     OW60723   6.296   2.929   2.660  0.2374 -0.4300 -0.2716
19761SOL    HW160724   6.318   3.016   2.627  0.2159 -0.2842  0.1009
19761SOL    HW260725   6.270   2.943   2.751 -1.4392 -0.5794 -0.6877
19762SOL     OW60726   0.056   3.358   9.081  0.1096  0.3567 -0.2364
19762SOL    HW160727   0.027   3.449   9.082  0.9523  0.6498 -1.1666
19762SOL    HW260728  -0.009   3.312   9.029  0.0766  0.5661 -0.3777
19763SOL     OW60729   6.545   6.962   0.569  0.0917  0.5600 -0.2710
19763SOL    HW160730   6.635   6.930   0.567 -0.7927 -2.2845  0.2335
19763SOL    HW260731   6.517   6.961   0.477  0.4720  1.1775 -0.3966
19764SOL     OW60732   0.142   3.856   7.437 -0.2756  0.7053 -0.0325
19764SOL    HW160733   0.131   3.796   7.511  1.6363 -0.6902 -0.7721
19764SOL    HW260734   0.171   3.938   7.477 -0.5704  0.3857  0.8629
19765SOL     OW60735   5.322   2.105   0.452  0.4147  0.4413 -0.0376
19765SOL    HW160736   5.331   2.188   0.405 -1.6560  0.3754 -0.6473
19765SOL    HW260737   5.369   2.042   0.398  0.6777  0.9314 -0.3868
19766SOL     OW60738   6.838   5.034   6.024 -0.2299  0.0318 -0.4397
19766SOL    HW160739   6.813   5.038   5.931 -0.2742 -1.6056 -0.5154
19766SOL    HW260740   6.861   5.125   6.045  0.5785  0.3157 -2.2774
19767SOL     OW60741   1.137   0.819  10.012  0.4660 -0.1510  0.3901
19767SOL    HW160742   1.079   0.835   9.937  0.3134  0.2570  0.5977
19767SOL    HW260743   1.089   0.850  10.088  0.5578 -0.7084  0.6866
19768SOL     OW60744   4.855   0.907   3.032  0.7524 -0.1627 -0.0783
19768SOL    HW160745   4.800   0.860   3.094  0.5178 -0.3668 -0.4415
19768SOL    HW260746   4.942   0.908   3.073  0.7443 -0.8449 -0.0349
19769SOL     OW60747   0.451   0.380   8.077  0.2950 -0.2012  0.2247
19769SOL    HW160748   0.408   0.381   8.162  0.8085 -0.5548  0.4855
19769SOL    HW260749   0.407   0.310   8.029  1.4752 -1.4969  0.9646
19770SOL     OW60750   5.860   6.412   0.997  0.0030  0.2350 -0.0049
19770SOL    HW160751   5.941   6.365   0.980  0.9461  1.1566  1.6557
19770SOL    HW260752   5.879   6.502   0.973  0.0148  0.7490  1.7965
19771SOL     OW60753   6.820   0.692   9.658 -0.3070 -0.2057 -0.1894
19771SOL    HW160754   6.872   0.640   9.721  1.4930  1.0859 -0.5314
19771SOL    HW260755   6.794   0.770   9.707 -0.8734 -0.2577 -0.4004
19772SOL     OW60756   4.508   3.017  10.605  0.4889 -0.0017 -0.0306
19772SOL    HW160757   4.461   3.022  10.522 -0.4792  0.7794  0.5426
19772SOL    HW260758   4.511   3.108  10.637 -0.8769 -0.5091  1.7052
19773SOL     OW60759   0.370   0.995  10.539  0.1129  0.2469  0.2128
19773SOL    HW160760   0.445   0.969  10.591  1.3877  0.6376 -1.3457
19773SOL    HW260761   0.335   1.072  10.583 -0.5203 -0.9522  1.9400
19774SOL     OW60762   6.515   1.337   9.194 -0.1499 -0.5175  0.1935
19774SOL    HW160763   6.500   1.369   9.106  1.7185 -1.4473 -0.5206
19774SOL    HW260764   6.466   1.254   9.198  0.4723 -0.9146 -0.2879
19775SOL     OW60765   7.694   4.157   0.285  0.0272 -0.3096  0.1049
19775SOL    HW160766   7.705   4.247   0.255  0.0348 -0.7557 -1.3024
19775SOL    HW260767   7.782   4.120   0.284  0.0335 -0.3326  0.7406
19776SOL     OW60768   6.767   3.914   7.899 -0.1409  0.5195 -0.4252
19776SOL    HW160769   6.732   3.826   7.915 -0.4794  0.6437 -0.4730
19776SOL    HW260770   6.797   3.911   7.808  3.5007 -0.7659  0.6362
19777SOL     OW60771   4.236   4.182  10.899 -0.0099 -0.1083 -0.2061
19777SOL    HW160772   4.243   4.271  10.864 -3.9216  0.3793 -0.1788
19777SOL    HW260773   4.256   4.191  10.992  0.0605  0.6638 -0.2895
19778SOL     OW60774   7.731   6.558   6.573 -0.0657  0.5561 -0.6827
19778SOL    HW160775   7.762   6.619   6.640  1.1559 -1.4450  0.6737
19778SOL    HW260776   7.781   6.581   6.495  1.3989  0.4558  0.1856
19779SOL     OW60777   0.336   4.952  11.340  0.2103 -0.3900  0.0653
19779SOL    HW160778   0.323   5.006  11.417 -0.6591  0.1768 -0.4599
19779SOL    HW260779   0.398   5.001  11.286 -0.3848 -0.0268 -0.2970
19780SOL     OW60780   4.036   7.425   5.945 -0.1435 -0.4105 -0.0271
19780SOL    HW160781   4.097   7.437   5.872 -0.3915  2.1619  0.1232
19780SOL    HW260782   4.084   7.455   6.022  0.2609 -3.4571  1.0561
19781SOL     OW60783   7.007   4.566   7.724 -0.4230  0.1863 -0.3260
19781SOL    HW160784   6.924   4.520   7.730 -1.2840  1.6358 -0.7185
19781SOL    HW260785   7.008   4.624   7.799  0.2735  0.1374 -0.2921
19782SOL     OW60786   3.774   4.441   5.256  0.2231  0.6844  0.0796
19782SOL    HW160787   3.710   4.407   5.194 -1.1186  2.6846  0.2776
19782SOL    HW260788   3.804   4.364   5.305 -1.1089 -0.4673 -0.8512
19783SOL     OW60789   2.370   7.046   0.734  0.4615 -0.4367  0.3815
19783SOL    HW160790   2.374   6.971   0.674 -1.8857 -0.7656  0.5592
19783SOL    HW260791   2.368   7.122   0.675 -1.4528 -0.7433 -0.0315
19784SOL     OW60792   4.248   6.900   0.434  0.3203 -0.3253  0.4817
19784SOL    HW160793   4.174   6.857   0.390 -0.4118  0.1315  1.2342
19784SOL    HW260794   4.324   6.846   0.411 -0.6109 -2.3057  1.7505
19785SOL     OW60795   3.534   1.238   3.798 -0.1820 -0.0450 -0.4330
19785SOL    HW160796   3.599   1.265   3.734 -0.3797  0.9468 -0.2354
19785SOL    HW260797   3.547   1.143   3.808  0.8818  0.0574 -0.7708
19786SOL     OW60798   2.584   5.113   0.857 -0.8750 -0.6559  0.2028
19786SOL    HW160799   2.524   5.040   0.841 -1.0720 -0.7473  1.3136
19786SOL    HW260800   2.549   5.158   0.933  0.6279 -0.9022  1.0807
19787SOL     OW60801   3.465   3.540  12.431  0.0834  0.2451 -0.2934
19787SOL    HW160802   3.442   3.507  12.344 -1.2161  0.7570 -0.1532
19787SOL    HW260803   3.538   3.484  12.458 -0.3093 -0.7428 -1.1921
19788SOL     OW60804   4.669   6.550   7.209 -0.1230  0.5769 -0.3554
19788SOL    HW160805   4.668   6.458   7.182 -1.2349  0.7642 -0.9994
19788SOL    HW260806   4.759   6.578   7.192  0.1223 -0.2772 -0.5385
19789SOL     OW60807   3.443   4.570   1.118  0.1229 -0.3512  0.6822
19789SOL    HW160808   3.449   4.664   1.139 -0.2641 -0.0650 -0.4290
19789SOL    HW260809   3.368   4.539   1.169  0.7292 -0.2460  1.6708
19790SOL     OW60810   6.969   2.109   8.909  0.4419 -0.3358 -0.2037
19790SOL    HW160811   7.054   2.153   8.906 -0.9623  2.6131 -0.5204
19790SOL    HW260812   6.907   2.176   8.878 -2.1057 -2.0801  0.8419
19791SOL     OW60813   7.124   7.963   0.659  0.7040  0.6989 -0.2169
19791SOL    HW160814   7.090   7.977   0.570 -0.1408  1.4683  0.2071
19791SOL    HW260815   7.175   8.042   0.677 -1.1560  1.7259  0.8691
19792SOL     OW60816   1.006   2.943   2.301  0.1904 -0.4073  0.2877
19792SOL    HW160817   1.038   2.964   2.213  1.2863  0.5004  0.8750
19792SOL    HW260818   0.915   2.971   2.301  0.3092 -0.0098 -0.4203
19793SOL     OW60819   7.575   7.403   6.043  0.1945 -0.1716  0.4085
19793SOL    HW160820   7.483   7.425   6.035  0.0964 -0.2088  1.3427
19793SOL    HW260821   7.611   7.415   5.954 -0.1652  2.2919  0.5257
19794SOL     OW60822   3.365   7.835  10.076 -0.8226  0.1746  0.4285
19794SOL    HW160823   3.339   7.856  10.166 -0.3747 -2.5153  1.2618
19794SOL    HW260824   3.415   7.912  10.048 -2.0955  1.6505  1.9508
19795SOL     OW60825   3.811   4.806   2.293 -0.4377 -0.3376  0.0268
19795SOL    HW160826   3.807   4.869   2.221  4.6808  1.9310  1.2279
19795SOL    HW260827   3.861   4.733   2.258  0.3902 -0.1110  0.7206
19796SOL     OW60828   1.105   5.655   4.833  0.4599  0.1636  0.3561
19796SOL    HW160829   1.144   5.707   4.763 -0.0185  0.9952  0.6946
19796SOL    HW260830   1.038   5.712   4.871  0.9458 -0.1438  1.7108
19797SOL     OW60831   3.193   4.790   1.006  0.2528  0.4042 -0.6533
19797SOL    HW160832   3.175   4.858   0.942  0.2570  0.1505 -0.9286
19797SOL    HW260833   3.133   4.718   0.983 -0.0898  0.4929 -0.0760
19798SOL     OW60834   6.911   0.230  11.506  0.0588  0.0023 -0.3359
19798SOL    HW160835   6.822   0.221  11.542 -0.4302  0.2436 -1.4453
19798SOL    HW260836   6.905   0.194  11.418  1.3411 -0.9658 -0.0644
19799SOL     OW60837   7.616   4.970   6.613 -0.0908 -0.2116 -0.1128
19799SOL    HW160838   7.672   5.046   6.597 -0.2529  0.1376  0.9210
19799SOL    HW260839   7.535   4.988   6.566  0.4168 -0.4281 -1.0891
19800SOL     OW60840   7.668   5.975   7.732 -0.4837 -0.6969 -0.3580
19800SOL    HW160841   7.644   5.945   7.644 -0.0660 -0.1650 -0.6540
19800SOL    HW260842   7.727   6.049   7.718 -2.0907  0.7988  0.3552
19801SOL     OW60843   4.443   0.518   1.684  1.1061  0.1986 -0.1610
19801SOL    HW160844   4.529   0.476   1.678  0.9501  0.0093 -1.3673
19801SOL    HW260845   4.382   0.453   1.648  0.7257  1.0638 -1.1325
19802SOL     OW60846   7.134   0.657   8.992  0.0551  0.0768  0.8077
19802SOL    HW160847   7.053   0.678   9.039  0.2428  1.8645  0.4278
19802SOL    HW260848   7.193   0.623   9.059 -0.5100  0.1848  1.3722
19803SOL     OW60849   3.701   5.015   5.048  0.1236  0.0685 -0.8069
19803SOL    HW160850   3.655   4.996   5.130 -0.0414  0.2200 -0.8654
19803SOL    HW260851   3.719   4.928   5.010 -0.6916  0.0216 -1.1068
19804SOL     OW60852   4.745   6.894   4.965  0.1179 -0.1675  0.0733
19804SOL    HW160853   4.819   6.864   5.017  0.3573 -0.1447 -0.2502
19804SOL    HW260854   4.694   6.814   4.949  0.9637 -0.5007 -1.1239
19805SOL     OW60855   3.912   2.861   9.906  0.6241  0.2632  0.1997
19805SOL    HW160856   3.831   2.820   9.937  0.1471 -0.7376 -2.1339
19805SOL    HW260857   3.895   2.955   9.912 -0.5447  0.0670  0.2166
19806SOL     OW60858   6.909   3.092   8.080 -0.0588 -0.4062 -0.2832
19806SOL    HW160859   6.886   2.999   8.075 -2.5814 -0.0720  2.4030
19806SOL    HW260860   6.999   3.092   8.112 -0.3954 -1.9951  0.8140
19807SOL     OW60861   4.931   7.691  11.641 -0.3205 -0.1593  0.0678
19807SOL    HW160862   4.904   7.709  11.731 -0.0135 -2.2389  0.6285
19807SOL    HW260863   4.874   7.620  11.612  2.7473 -3.0626  0.4764
19808SOL     OW60864   5.952   7.696   0.969 -0.3353  0.0786  0.0266
19808SOL    HW160865   5.899   7.699   1.049  1.0514  1.0407  0.9552
19808SOL    HW260866   6.018   7.629   0.986 -1.4216 -1.3869 -1.2720
19809SOL     OW60867   3.200   0.029   0.964 -0.3008 -0.2967 -0.3006
19809SOL    HW160868   3.265  -0.030   1.001  1.8142  2.0982  0.0859
19809SOL    HW260869   3.128   0.028   1.027  0.7177 -0.6865  0.8928
19810SOL     OW60870   1.484   7.432   9.753  0.4948  0.0202 -0.0120
19810SOL    HW160871   1.460   7.434   9.660  1.5454  0.5624 -0.2921
19810SOL    HW260872   1.506   7.341   9.771 -0.4859 -0.2327 -0.0874
19811SOL     OW60873   1.115   2.179   9.924  0.3249 -0.4371 -0.2441
19811SOL    HW160874   1.206   2.188   9.896 -0.0763 -1.8733 -2.1804
19811SOL    HW260875   1.109   2.089   9.957 -0.2922 -0.1958  0.3248
19812SOL     OW60876   1.267   0.129   6.889 -0.2282 -0.2073 -0.5935
19812SOL    HW160877   1.307   0.066   6.949 -0.0508 -0.2797 -0.7858
19812SOL    HW260878   1.298   0.214   6.920 -0.4156 -0.2186 -0.3733
19813SOL     OW60879   1.671   1.392   4.304 -0.3213  0.2312 -0.1158
19813SOL    HW160880   1.722   1.468   4.332 -1.6086  1.2885 -0.5659
19813SOL    HW260881   1.628   1.420   4.224 -2.9966 -0.0162  1.1444
19814SOL     OW60882   7.759   1.745   9.763 -0.0389  0.0259  0.4804
19814SOL    HW160883   7.850   1.750   9.793 -0.4220  0.4594  1.6347
19814SOL    HW260884   7.758   1.797   9.683  0.7325 -0.0120  0.4328
19815SOL     OW60885   2.670   4.417   5.816  0.0360 -0.0680 -0.1571
19815SOL    HW160886   2.602   4.378   5.761  0.7358  1.1862 -2.0054
19815SOL    HW260887   2.707   4.343   5.865 -1.9818 -0.9079  0.2060
19816SOL     OW60888   6.167   7.434   7.563  0.4640  0.3985  0.4057
19816SOL    HW160889   6.118   7.408   7.641  1.4502 -1.7323  0.3818
19816SOL    HW260890   6.106   7.421   7.490  0.0671  0.8104  0.6628
19817SOL     OW60891   5.624   3.812   1.498 -0.1587  0.2236 -0.1196
19817SOL    HW160892   5.666   3.847   1.419  0.0759  0.8777  0.2840
19817SOL    HW260893   5.533   3.797   1.473  0.0365 -0.0963 -0.6681
19818SOL     OW60894   3.984   2.297  11.240  0.7034  0.5642 -0.2062
19818SOL    HW160895   3.950   2.376  11.199  1.9146  0.9087 -0.5987
19818SOL    HW260896   4.075   2.292  11.211  2.5377  2.2508  4.3829
19819SOL     OW60897   1.608   2.360   5.233  0.0917  0.7341  0.0245
19819SOL    HW160898   1.691   2.340   5.190 -0.3647  0.6354 -0.8184
19819SOL    HW260899   1.624   2.443   5.279 -0.1177  2.1389 -2.3107
19820SOL     OW60900   2.580   2.147   8.892  0.2903 -0.0996 -0.0339
19820SOL    HW160901   2.607   2.164   8.982 -0.7911 -0.0748  0.2951
19820SOL    HW260902   2.516   2.216   8.873  1.1609  0.4497 -1.1355
19821SOL     OW60903   5.699   3.542  10.953 -0.0495 -0.2993 -0.1889
19821SOL    HW160904   5.747   3.614  10.912  0.9890 -1.3865 -0.9534
19821SOL    HW260905   5.710   3.555  11.047 -1.0296  1.2821 -0.2528
19822SOL     OW60906   6.629   2.013   9.929  0.1899  0.5304 -0.1111
19822SOL    HW160907   6.632   1.963   9.847 -0.0594  2.0505 -1.0879
19822SOL    HW260908   6.537   2.037   9.940  0.0263 -0.6275  1.2515
19823SOL     OW60909   5.662   7.082   8.889  0.3457  0.1376 -0.7960
19823SOL    HW160910   5.592   7.032   8.847  0.7537  1.5431 -3.3091
19823SOL    HW260911   5.709   7.017   8.942 -2.7433 -0.8703  1.0242
19824SOL     OW60912   4.600   2.348   9.101  0.2175  0.2752 -0.5101
19824SOL    HW160913   4.538   2.301   9.045  0.0186 -0.3316  0.1957
19824SOL    HW260914   4.685   2.307   9.083  0.6411  1.7624 -2.2134
19825SOL     OW60915   3.570   6.475   7.359 -0.2508  0.3482  0.0703
19825SOL    HW160916   3.563   6.461   7.453  0.7883  2.8369  0.5853
19825SOL    HW260917   3.554   6.569   7.347 -2.3710 -0.1980 -2.4908
19826SOL     OW60918   7.187   6.920   9.321 -0.0401 -0.2480  0.1775
19826SOL    HW160919   7.211   7.001   9.277 -1.5035 -0.5251 -1.1914
19826SOL    HW260920   7.146   6.948   9.403  0.5164  0.3266  0.2714
19827SOL     OW60921   3.102   6.542   2.549  0.5430 -0.2436 -0.5711
19827SOL    HW160922   3.197   6.542   2.544  0.5289  0.5399 -1.0172
19827SOL    HW260923   3.083   6.509   2.637  1.2604  0.6239 -0.0765
19828SOL     OW60924   6.318   7.884   1.423  0.1674  0.2516  0.3467
19828SOL    HW160925   6.377   7.946   1.466  0.4795  1.0129 -1.1063
19828SOL    HW260926   6.290   7.825   1.492 -0.8101  2.5008  1.9835
19829SOL     OW60927   0.085   0.393   8.063 -0.1811  0.6311  0.0954
19829SOL    HW160928   0.093   0.317   8.121  0.4438  1.0426  0.5644
19829SOL    HW260929   0.041   0.459   8.117 -1.6201  0.3048 -0.6186
19830SOL     OW60930   2.873   3.950   9.417 -0.3069 -0.3350  0.4914
19830SOL    HW160931   2.840   4.013   9.481  0.1511  1.4452 -0.9424
19830SOL    HW260932   2.966   3.940   9.439 -0.4280 -0.6732  0.8495
19831SOL     OW60933   0.360   2.104   1.716  0.3190 -0.1680  0.0911
19831SOL    HW160934   0.325   2.172   1.774  0.2765  0.3004 -0.4748
19831SOL    HW260935   0.292   2.036   1.715  0.4845 -0.3507  0.8787
19832SOL     OW60936   2.603   3.897   1.282 -0.1363 -0.1802  0.0216
19832SOL    HW160937   2.674   3.835   1.297 -0.3162 -1.0291 -2.3076
19832SOL    HW260938   2.524   3.850   1.310 -0.2413 -0.9501 -1.4885
19833SOL     OW60939   0.403   0.099   9.300  0.7379  0.4542  0.1897
19833SOL    HW160940   0.419   0.083   9.394 -1.5312  0.3286  0.6170
19833SOL    HW260941   0.402   0.194   9.292  0.5763  0.4703  0.3761
19834SOL     OW60942   7.319   6.686   5.395  0.4925 -0.1817  0.1279
19834SOL    HW160943   7.305   6.710   5.303 -0.7955  1.3222  0.6757
19834SOL    HW260944   7.240   6.639   5.420  0.8323 -0.5761  0.4811
19835SOL     OW60945   3.316   6.556  11.065  0.4147  0.2304  0.1251
19835SOL    HW160946   3.235   6.603  11.082  0.8202  0.3519  1.8806
19835SOL    HW260947   3.293   6.493  10.997 -0.8975  0.8770 -0.0748
19836SOL     OW60948   5.023   7.117   0.855 -0.0267  0.0659  0.4326
19836SOL    HW160949   5.083   7.162   0.915  0.3812 -0.2236  0.2439
19836SOL    HW260950   4.989   7.043   0.906 -0.5158  0.4344  0.6626
19837SOL     OW60951   7.301   3.234   4.039 -0.0461  0.5773 -0.1633
19837SOL    HW160952   7.309   3.236   4.134  1.5223 -0.2963 -0.2361
19837SOL    HW260953   7.373   3.289   4.007  0.4920 -0.4561 -0.8295
19838SOL     OW60954   3.242   0.838   2.336 -0.5364 -0.3761 -0.4327
19838SOL    HW160955   3.298   0.863   2.262  0.3812 -0.8065  0.1016
19838SOL    HW260956   3.185   0.770   2.300  1.0144 -1.7869 -0.3710
19839SOL     OW60957   0.488   1.440   5.688  0.1084  0.3017  0.6660
19839SOL    HW160958   0.475   1.431   5.783 -0.4485 -0.1092  0.5571
19839SOL    HW260959   0.455   1.528   5.668 -1.4099 -0.2523  0.5959
19840SOL     OW60960   4.789   6.910   1.352 -0.2265  0.3639  0.0496
19840SOL    HW160961   4.881   6.933   1.366 -0.1131  0.5071 -0.9035
19840SOL    HW260962   4.791   6.841   1.286 -0.8654  1.4282 -1.1411
19841SOL     OW60963   6.416   0.262   6.553 -0.0172 -0.7796 -0.1577
19841SOL    HW160964   6.502   0.253   6.513 -0.3259 -2.0295 -0.5865
19841SOL    HW260965   6.380   0.343   6.516  1.5300  0.5937  1.1684
19842SOL     OW60966   7.673   2.262   8.682  0.3506 -0.4201  0.4050
19842SOL    HW160967   7.643   2.296   8.598  2.7577  0.5484 -0.1179
19842SOL    HW260968   7.724   2.184   8.660  2.1207  0.5743  0.7680
19843SOL     OW60969   4.082   3.653  10.179 -0.8932 -0.1569 -0.2488
19843SOL    HW160970   4.072   3.732  10.232  0.0592  0.8644 -1.5261
19843SOL    HW260971   4.025   3.588  10.221 -0.8263  0.8502  1.4964
19844SOL     OW60972   4.365   1.180   1.510 -0.3025 -0.7628  0.0566
19844SOL    HW160973   4.315   1.247   1.464 -1.7733 -0.7522  1.5524
19844SOL    HW260974   4.454   1.188   1.475 -1.1899 -0.4043 -2.2962
19845SOL     OW60975   0.366   0.905   5.917 -0.1584 -0.0025  0.3207
19845SOL    HW160976   0.351   0.998   5.901  1.0101 -0.2077 -2.5672
19845SOL    HW260977   0.454   0.899   5.953  1.0109 -0.0524 -2.2749
19846SOL     OW60978   6.683   5.943   6.371 -0.4114 -0.5707 -0.1770
19846SOL    HW160979   6.745   5.891   6.422 -1.0881 -0.8509  0.3741
19846SOL    HW260980   6.728   5.957   6.287  1.8150  2.0198  1.2730
19847SOL     OW60981   1.438   6.121   4.488 -0.0185  0.2660 -0.4986
19847SOL    HW160982   1.486   6.042   4.511 -1.2387 -0.2943  0.2258
19847SOL    HW260983   1.354   6.090   4.454 -0.5391  1.2378 -0.1669
19848SOL     OW60984   6.061   0.038   3.868  0.4452 -0.3352  0.0691
19848SOL    HW160985   6.111   0.118   3.886  0.7363 -0.5145  0.0742
19848SOL    HW260986   5.981   0.068   3.825  0.8783 -0.0943 -0.5841
19849SOL     OW60987   7.417   5.991  10.470  0.1606 -0.0753  0.2495
19849SOL    HW160988   7.360   6.027  10.402  0.9737 -0.9069 -0.8990
19849SOL    HW260989   7.360   5.984  10.547 -1.5609 -1.6269 -1.0668
19850SOL     OW60990   6.244   1.612   2.359  0.2848  0.3977 -0.3616
19850SOL    HW160991   6.168   1.579   2.311  0.7303  0.8599 -1.4183
19850SOL    HW260992   6.207   1.651   2.438 -0.6641  1.2251 -1.1826
19851SOL     OW60993   6.891   1.350  10.830  0.7011 -0.5455 -0.3087
19851SOL    HW160994   6.872   1.257  10.818  1.1772 -0.6872 -0.0025
19851SOL    HW260995   6.902   1.384  10.741  0.2459 -0.7191 -0.4343
19852SOL     OW60996   2.581   5.805   6.272 -0.0195 -0.7897 -0.3951
19852SOL    HW160997   2.504   5.862   6.272  0.6541  0.1496 -0.4299
19852SOL    HW260998   2.552   5.727   6.225 -0.4724  0.2413 -1.9289
19853SOL     OW60999   1.343   4.303  10.441 -0.1192 -0.2778  0.3433
19853SOL    HW161000   1.373   4.216  10.468 -0.2371 -0.5233 -0.3016
19853SOL    HW261001   1.404   4.363  10.484  0.1580 -0.6904  0.5409
19854SOL     OW61002   5.252   7.269  11.684  0.2796 -0.4361  0.3610
19854SOL    HW161003   5.229   7.212  11.758 -0.2972 -2.5131 -1.3235
19854SOL    HW261004   5.344   7.250  11.667  0.7261  0.8418  1.1406
19855SOL     OW61005   3.447   5.646   2.171 -0.1577  0.6998  0.0896
19855SOL    HW161006   3.403   5.570   2.209 -1.8275  1.0409 -1.0665
19855SOL    HW261007   3.515   5.608   2.115  0.3981  0.1323  1.1247
19856SOL     OW61008   0.961   7.284  11.209  0.5940 -0.3160 -0.1344
19856SOL    HW161009   0.982   7.376  11.223  1.3655 -0.1844 -1.9605
19856SOL    HW261010   1.046   7.239  11.206  0.1993 -1.4066  2.3890
19857SOL     OW61011   1.804   5.358   7.129 -0.1638  0.4189  0.2061
19857SOL    HW161012   1.760   5.420   7.071 -1.8221 -0.1707  0.7807
19857SOL    HW261013   1.831   5.410   7.204 -0.3122  0.7003  0.0656
19858SOL     OW61014   7.338   6.982   7.399 -0.5355 -0.6348 -0.1541
19858SOL    HW161015   7.314   7.014   7.486  0.2458  1.0910 -0.5227
19858SOL    HW261016   7.267   7.013   7.342  0.2847  0.6096 -0.5341
19859SOL     OW61017   3.368   7.695   8.757  0.8038 -0.2190  0.0396
19859SOL    HW161018   3.303   7.705   8.687  1.3575 -0.7268 -0.5658
19859SOL    HW261019   3.345   7.762   8.821 -0.9161 -1.0250  0.3302
19860SOL     OW61020   0.255   7.365   4.685 -0.2070  0.7006 -0.0903
19860SOL    HW161021   0.294   7.365   4.597 -0.2826 -0.1605 -0.1319
19860SOL    HW261022   0.294   7.441   4.728  0.6342  0.5277 -0.5190
19861SOL     OW61023   4.675   6.973   7.412 -0.1766  0.2475 -0.3094
19861SOL    HW161024   4.768   6.997   7.414 -0.1152  0.1390 -1.4699
19861SOL    HW261025   4.638   7.024   7.340 -0.8334 -0.3361 -0.4000
19862SOL     OW61026   6.070   6.228  11.250 -0.1428  0.5370 -0.0681
19862SOL    HW161027   5.998   6.202  11.307  0.0932  1.1244  0.5048
19862SOL    HW261028   6.083   6.152  11.192  0.9294 -0.8771  1.9204
19863SOL     OW61029   1.458   5.111   7.915  0.0941  0.1155  0.7196
19863SOL    HW161030   1.410   5.177   7.866 -0.1769 -0.1692  0.5949
19863SOL    HW261031   1.454   5.140   8.006  0.7436  0.7323  0.5542
19864SOL     OW61032   6.850   0.782   2.253  0.0529 -0.0723  0.4691
19864SOL    HW161033   6.906   0.860   2.247  0.8827 -0.6943 -0.0852
19864SOL    HW261034   6.833   0.772   2.347  3.4208 -1.5996  1.0512
19865SOL     OW61035   7.064   0.667   4.218  0.4022 -0.2610  0.0743
19865SOL    HW161036   6.971   0.645   4.212 -0.7849  3.4962  1.4886
19865SOL    HW261037   7.086   0.705   4.133  0.1198  0.3660  0.2736
19866SOL     OW61038   6.086   0.421   3.222 -0.0766  0.1800 -0.4937
19866SOL    HW161039   6.042   0.467   3.294 -0.8740  0.1575 -0.9514
19866SOL    HW261040   6.062   0.471   3.144 -1.2576 -1.1990 -1.0579
19867SOL     OW61041   5.142   1.731   0.333 -0.4791 -0.0132  0.4487
19867SOL    HW161042   5.130   1.808   0.389  0.5603  1.4281 -1.2127
19867SOL    HW261043   5.077   1.742   0.263  0.9709  0.4358 -0.8785
19868SOL     OW61044   0.626   6.302   7.193 -0.2836 -0.2208  0.0924
19868SOL    HW161045   0.654   6.289   7.284 -0.1928 -0.0411  0.0918
19868SOL    HW261046   0.601   6.395   7.189 -1.8082 -0.5817  0.3474
19869SOL     OW61047   7.664   1.873   5.706  0.2937 -0.5015 -0.6849
19869SOL    HW161048   7.721   1.852   5.780  1.6506  1.6319 -1.0148
19869SOL    HW261049   7.578   1.840   5.731  0.5617  0.6363  2.1303
19870SOL     OW61050   3.751   6.517  11.557  0.2422  0.0328 -0.6388
19870SOL    HW161051   3.700   6.465  11.495 -0.8162  0.7770 -0.4276
19870SOL    HW261052   3.714   6.605  11.551  0.6474  0.3022  0.4642
19871SOL     OW61053   2.485   3.237   3.567  0.2028 -0.3965  0.6044
19871SOL    HW161054   2.574   3.208   3.585  1.0185  0.2345 -1.9058
19871SOL    HW261055   2.429   3.181   3.621  2.0255 -1.8912  1.0424
19872SOL     OW61056   4.211   7.682   9.090 -0.3633 -0.2898 -0.5618
19872SOL    HW161057   4.278   7.710   9.152  0.6431  0.4548 -1.9324
19872SOL    HW261058   4.260   7.647   9.016 -1.5398 -1.3834 -0.8654
19873SOL     OW61059   0.517   5.668   4.171  0.3852 -0.4922  0.3476
19873SOL    HW161060   0.517   5.677   4.266  0.6774 -0.7676  0.3764
19873SOL    HW261061   0.428   5.639   4.150  0.3164 -0.4197  0.5339
19874SOL     OW61062   4.939   6.803   1.945 -0.0834 -0.5871 -0.8809
19874SOL    HW161063   4.893   6.820   2.028  1.5313 -0.7220  0.0952
19874SOL    HW261064   4.870   6.803   1.879 -1.4660 -0.7049  0.4893
19875SOL     OW61065   6.641   6.734  10.284 -0.2601 -0.6315  1.2920
19875SOL    HW161066   6.572   6.786  10.324  0.7746  1.1959  0.8373
19875SOL    HW261067   6.609   6.644  10.287 -3.6068  0.3143 -0.7972
19876SOL     OW61068   6.501   0.906   2.643 -0.6253  0.3507  0.1906
19876SOL    HW161069   6.503   0.985   2.697 -0.5999  1.4774 -1.3890
19876SOL    HW261070   6.411   0.875   2.648 -0.0870 -1.0479  2.8525
19877SOL     OW61071   4.070   7.952   4.140  0.1926  0.1247  0.2084
19877SOL    HW161072   4.155   7.912   4.119 -0.1551 -0.2602 -0.4936
19877SOL    HW261073   4.091   8.019   4.205  0.6910 -1.6601  1.9718
19878SOL     OW61074   0.478   7.967   7.643 -0.1592 -0.0005 -0.0277
19878SOL    HW161075   0.398   7.918   7.625  0.0740 -0.4667  0.1738
19878SOL    HW261076   0.539   7.938   7.575  0.1397 -0.3744  0.3966
19879SOL     OW61077   2.384   0.360   2.390  0.1610  0.3381  0.3733
19879SOL    HW161078   2.359   0.426   2.325  0.4918 -1.1317 -1.3404
19879SOL    HW261079   2.383   0.407   2.473 -1.9474  1.9125 -0.4267
19880SOL     OW61080   2.652   4.909   8.500  0.3106  0.1065  0.2224
19880SOL    HW161081   2.691   4.963   8.431  0.5999 -0.2284  0.1195
19880SOL    HW261082   2.558   4.913   8.482  0.4946 -2.1932 -1.9286
19881SOL     OW61083   3.596   0.861   0.430 -0.1470 -0.5212 -0.7888
19881SOL    HW161084   3.594   0.934   0.369  1.0439 -1.6827 -2.2736
19881SOL    HW261085   3.505   0.829   0.433 -0.4235  0.2282 -1.0764
19882SOL     OW61086   1.558   0.806   8.353 -0.6867  0.7492 -0.3074
19882SOL    HW161087   1.511   0.863   8.292  0.0819  0.4866 -1.1474
19882SOL    HW261088   1.557   0.720   8.312 -0.2746  0.5384  0.1164
19883SOL     OW61089   4.829   7.545  10.680 -0.2006  0.1569 -0.3700
19883SOL    HW161090   4.806   7.459  10.646 -1.4507 -0.0106  0.7984
19883SOL    HW261091   4.852   7.530  10.772  2.7136  0.6512 -0.9244
19884SOL     OW61092   3.511   7.303   2.325 -0.4361  0.5927 -0.2181
19884SOL    HW161093   3.472   7.260   2.249 -1.5612  0.5931  0.3353
19884SOL    HW261094   3.496   7.397   2.311 -2.5308  0.4922  0.9503
19885SOL     OW61095   3.359   3.561   4.113  0.2302 -0.0025 -0.1953
19885SOL    HW161096   3.308   3.587   4.036  0.7578 -0.5782 -0.7505
19885SOL    HW261097   3.299   3.507   4.164 -0.9515  2.3177  1.0651
19886SOL     OW61098   2.476   3.749   0.236  0.0822 -0.3691  0.3743
19886SOL    HW161099   2.509   3.672   0.190 -1.6199 -1.1135  0.3056
19886SOL    HW261100   2.403   3.780   0.183  0.5583  1.1470  0.5557
19887SOL     OW61101   3.260   3.967   5.054 -0.1295 -0.1050 -0.1231
19887SOL    HW161102   3.210   3.970   4.973 -1.0547  0.3647  0.4477
19887SOL    HW261103   3.352   3.960   5.026 -0.2893  1.7366 -1.2511
19888SOL     OW61104   4.896   5.927   4.219  0.0127  0.1899  0.0736
19888SOL    HW161105   4.858   5.927   4.131 -0.0394  2.2668  0.0409
19888SOL    HW261106   4.856   6.002   4.262  0.4012 -0.5089  1.7340
19889SOL     OW61107   5.099   6.616   6.855 -0.1932 -0.0243  0.0352
19889SOL    HW161108   5.036   6.653   6.794 -0.8974 -0.0413  0.7322
19889SOL    HW261109   5.181   6.662   6.836 -0.2179 -0.5376 -1.3816
19890SOL     OW61110   1.832   3.891   0.880  0.0087  0.5649 -0.6354
19890SOL    HW161111   1.912   3.921   0.838 -0.3218  2.7882  0.1944
19890SOL    HW261112   1.763   3.907   0.816 -0.2513  2.2971  0.0216
19891SOL     OW61113   3.079   5.326  11.545 -0.6364 -0.0248  0.3526
19891SOL    HW161114   3.136   5.399  11.519  0.3834 -0.5977  0.9663
19891SOL    HW261115   3.058   5.282  11.463  1.5236 -1.0559  0.2951
19892SOL     OW61116   1.395   0.912   0.461 -0.2308 -0.3588  0.2515
19892SOL    HW161117   1.397   0.818   0.446  1.3950 -0.3075 -0.0175
19892SOL    HW261118   1.451   0.949   0.393 -0.2498  0.7358  0.8015
19893SOL     OW61119   5.844   4.441  12.255  0.2096  0.7352 -0.5193
19893SOL    HW161120   5.935   4.460  12.278 -0.4267  2.2744  1.0193
19893SOL    HW261121   5.804   4.527  12.241 -1.1081  0.1225 -0.7341
19894SOL     OW61122   7.919   1.215  10.382 -0.0147  0.3016 -0.0614
19894SOL    HW161123   7.825   1.203  10.371 -0.1265  1.4395 -0.4670
19894SOL    HW261124   7.941   1.164  10.460 -0.5712 -1.6581 -1.1311
19895SOL     OW61125   6.737   3.267   7.979  0.6248  0.3402  0.0341
19895SOL    HW161126   6.798   3.220   8.035  0.8509  2.5313  1.7559
19895SOL    HW261127   6.792   3.327   7.928  0.3060 -0.8385 -1.7951
19896SOL     OW61128   0.862   4.879   6.240 -0.4042 -0.0798  0.3339
19896SOL    HW161129   0.932   4.858   6.177  0.2859 -0.2438  1.1440
19896SOL    HW261130   0.805   4.802   6.238  1.0914 -1.2865  1.8889
19897SOL     OW61131   1.888   7.504  11.631 -0.2098  0.4501 -0.6015
19897SOL    HW161132   1.798   7.491  11.660 -1.3230  2.5733 -2.7380
19897SOL    HW261133   1.881   7.514  11.536  2.3271  0.3506 -0.8591
19898SOL     OW61134   4.447   3.045  12.407  0.2540 -0.1564  0.1617
19898SOL    HW161135   4.360   3.034  12.369  0.4029 -1.7522  0.2219
19898SOL    HW261136   4.501   2.981  12.363  1.8755  1.9725 -1.1246
19899SOL     OW61137   1.288   5.904   3.235  0.8168  0.2399 -0.0301
19899SOL    HW161138   1.202   5.905   3.193  0.2925 -1.9527  0.8503
19899SOL    HW261139   1.346   5.861   3.172  0.8012 -0.0265  0.1323
19900SOL     OW61140   3.825   5.067   4.398 -0.2701 -0.7443  0.1099
19900SOL    HW161141   3.827   5.036   4.308 -0.0920 -0.5222  0.0374
19900SOL    HW261142   3.917   5.080   4.422 -0.2627 -1.5811  0.5984
19901SOL     OW61143   6.834   2.137  10.026  0.5041 -0.3619 -0.0649
19901SOL    HW161144   6.772   2.068  10.006  0.0372 -0.6284  2.0637
19901SOL    HW261145   6.897   2.135   9.953 -0.3503 -1.9874 -0.8050
19902SOL     OW61146   5.343   2.339   1.998 -0.2087 -0.3441  0.6898
19902SOL    HW161147   5.344   2.244   2.007 -1.4034 -0.4094  0.2847
19902SOL    HW261148   5.298   2.371   2.077 -1.6974 -0.2706 -0.1596
19903SOL     OW61149   6.809   0.917   9.085  1.2195  0.0448  0.0626
19903SOL    HW161150   6.881   0.862   9.115  0.6524 -0.6970  0.0805
19903SOL    HW261151   6.845   0.967   9.012  1.1216 -1.9523 -1.4010
19904SOL     OW61152   2.537   2.910  11.661 -0.7139 -0.4125  0.7118
19904SOL    HW161153   2.500   2.847  11.723 -0.7568  0.0345  1.1461
19904SOL    HW261154   2.560   2.985  11.715  1.7552 -1.0323  0.6223
19905SOL     OW61155   5.453   1.507   3.102  0.2473  0.0548 -0.1605
19905SOL    HW161156   5.387   1.549   3.047 -0.1338 -0.1389  0.1358
19905SOL    HW261157   5.512   1.578   3.127  0.7399  0.0452 -1.2510
19906SOL     OW61158   6.691   5.636   2.368 -0.4241 -0.2917 -0.1305
19906SOL    HW161159   6.715   5.633   2.460 -4.4371  0.7157  1.1343
19906SOL    HW261160   6.733   5.716   2.335  0.0890 -0.0193  1.1393
19907SOL     OW61161   7.633   7.877   3.102 -0.4643 -0.2837 -0.3269
19907SOL    HW161162   7.696   7.929   3.053 -1.4652 -0.7071 -2.1440
19907SOL    HW261163   7.549   7.923   3.092 -1.1164 -1.5226 -0.9188
19908SOL     OW61164   7.227   2.540   4.833 -0.0794 -0.1702 -0.1368
19908SOL    HW161165   7.200   2.514   4.745 -0.0008  0.9771 -0.5154
19908SOL    HW261166   7.210   2.462   4.887 -0.6605 -0.6984 -1.0484
19909SOL     OW61167   4.190   7.349   5.277 -0.3355 -0.2890 -0.1337
19909SOL    HW161168   4.146   7.273   5.241 -0.3503 -0.4681  0.2596
19909SOL    HW261169   4.265   7.314   5.326 -0.7876 -0.1153  0.7072
19910SOL     OW61170   7.631   2.024   1.164 -0.7956 -0.0205  0.0100
19910SOL    HW161171   7.616   1.966   1.239 -0.6717  0.8525  0.7320
19910SOL    HW261172   7.549   2.072   1.154 -1.5418 -1.5248 -1.7105
19911SOL     OW61173   7.513   5.883  11.869  0.4634  0.5667 -0.2941
19911SOL    HW161174   7.533   5.971  11.901  1.5537 -0.0801  0.8762
19911SOL    HW261175   7.479   5.837  11.945  0.0179 -0.0779 -0.8697
19912SOL     OW61176   1.800   4.197   9.919  0.3625 -0.2293  0.0827
19912SOL    HW161177   1.717   4.221   9.880  0.6690 -1.0065 -1.1103
19912SOL    HW261178   1.831   4.123   9.867 -0.0543 -2.5847  2.8940
19913SOL     OW61179   3.969   5.054   1.317 -0.0653 -0.0635  0.0871
19913SOL    HW161180   3.887   5.017   1.350 -0.3504  0.6913  0.2367
19913SOL    HW261181   4.036   5.013   1.371 -0.4171  0.0224  0.6022
19914SOL     OW61182   0.870   4.960   1.090 -0.2515  0.0192  0.1093
19914SOL    HW161183   0.816   5.036   1.070 -1.4637 -1.0810 -1.0656
19914SOL    HW261184   0.879   4.914   1.007 -1.0816 -2.0333  1.0659
19915SOL     OW61185   4.719   7.159   2.833 -0.1724  0.2022  0.0469
19915SOL    HW161186   4.707   7.072   2.869 -0.7498  0.1261 -0.3191
19915SOL    HW261187   4.813   7.176   2.841 -0.4143  0.6434  2.5651
19916SOL     OW61188   0.706   4.289   2.589  0.3402  0.6578 -0.2340
19916SOL    HW161189   0.674   4.200   2.576  0.4047  0.2527  1.9649
19916SOL    HW261190   0.728   4.320   2.501  1.3249 -1.8665 -0.9707
19917SOL     OW61191   4.979   2.994   6.102 -0.3764 -0.2035 -0.0373
19917SOL    HW161192   5.014   3.068   6.053 -1.7176 -0.3582 -1.3287
19917SOL    HW261193   4.935   2.941   6.035 -2.1455 -0.5246  1.3034
19918SOL     OW61194   5.076   6.517   8.016  0.1306  0.6972  0.3952
19918SOL    HW161195   5.084   6.491   8.108  0.7896 -1.2242 -0.1753
19918SOL    HW261196   5.130   6.596   8.009  2.9119 -1.0067  0.9703
19919SOL     OW61197   1.586   7.370  11.654  0.1993 -0.2349  1.1488
19919SOL    HW161198   1.591   7.274  11.655 -0.6317 -0.2944  0.3657
19919SOL    HW261199   1.622   7.396  11.739  0.0848 -1.2613  1.5286
19920SOL     OW61200   4.697   2.369   8.670  0.5314  0.3557  0.3278
19920SOL    HW161201   4.609   2.370   8.707 -1.1420 -0.3425 -3.1303
19920SOL    HW261202   4.725   2.460   8.674 -0.2613  0.5710  1.6272
19921SOL     OW61203   3.992   0.909   3.667  0.5231 -0.3828 -0.0168
19921SOL    HW161204   4.037   0.951   3.741  1.2466  1.1020 -1.2572
19921SOL    HW261205   3.996   0.973   3.597 -0.6610 -1.5426 -1.1924
19922SOL     OW61206   1.780   3.872   7.347  0.1787  0.3083  0.2497
19922SOL    HW161207   1.804   3.958   7.314 -0.6232  0.2778 -0.4736
19922SOL    HW261208   1.857   3.817   7.330  0.9665  1.0351  1.3948
19923SOL     OW61209   5.860   4.165   7.372 -0.4753 -0.6471 -0.2491
19923SOL    HW161210   5.831   4.145   7.461 -0.6916  0.3896 -0.0784
19923SOL    HW261211   5.798   4.118   7.316 -1.1002 -0.3078  0.1429
19924SOL     OW61212   0.437   6.771   0.538 -0.6446  0.0269 -0.3299
19924SOL    HW161213   0.518   6.737   0.499  0.6136  1.7125  0.6733
19924SOL    HW261214   0.377   6.697   0.537  2.1544 -2.5685  2.4257
19925SOL     OW61215   4.967   7.162   6.885  0.2691 -0.0595 -0.1166
19925SOL    HW161216   4.913   7.124   6.816 -0.5428 -1.0401  1.0178
19925SOL    HW261217   4.942   7.254   6.888 -0.2173 -0.1730 -0.6292
19926SOL     OW61218   5.538   4.217   1.109 -0.0730 -0.1704 -0.2742
19926SOL    HW161219   5.528   4.285   1.042 -0.6657 -0.9904 -1.0465
19926SOL    HW261220   5.613   4.246   1.161  0.0654  0.7627 -0.9513
19927SOL     OW61221   2.815   3.934   5.774  0.1855 -0.0495 -0.1199
19927SOL    HW161222   2.776   4.021   5.762  1.2646  0.3463 -0.9527
19927SOL    HW261223   2.766   3.877   5.715 -0.7604 -0.1056  0.6883
19928SOL     OW61224   1.902   3.688   8.941  0.1397  0.2769  0.2743
19928SOL    HW161225   1.845   3.617   8.971 -0.2330 -0.0536 -1.1312
19928SOL    HW261226   1.924   3.737   9.021 -1.4427 -0.0684  0.9652
19929SOL     OW61227   6.759   7.787  11.022 -0.0765 -0.3851 -0.3317
19929SOL    HW161228   6.765   7.792  10.927 -1.2511 -1.0376 -0.4563
19929SOL    HW261229   6.677   7.831  11.044  0.7582  0.8251  0.5035
19930SOL     OW61230   2.161   3.112  12.320  0.1158  0.0178  0.0515
19930SOL    HW161231   2.242   3.139  12.363 -0.1021  0.5035  0.1727
19930SOL    HW261232   2.146   3.023  12.351  0.2639  0.1574  0.5371
19931SOL     OW61233   3.979   5.343   7.074  0.2741  0.1430  0.0300
19931SOL    HW161234   3.928   5.419   7.045 -0.2746  0.2316  1.1827
19931SOL    HW261235   3.929   5.308   7.148  0.9045 -0.9106 -0.0343
19932SOL     OW61236   6.519   4.634   7.172  0.1399 -0.1287  0.4132
19932SOL    HW161237   6.602   4.676   7.194  0.0904  0.5158 -0.5542
19932SOL    HW261238   6.543   4.544   7.152  0.5999  0.0298  0.2266
19933SOL     OW61239   7.317   3.656  11.554  0.2036  0.1280  0.1767
19933SOL    HW161240   7.226   3.655  11.526 -0.3375  2.0274  1.6647
19933SOL    HW261241   7.365   3.690  11.478 -0.6375  1.1767  0.0942
19934SOL     OW61242   6.318   0.043   6.236 -0.3084  0.1273 -0.3444
19934SOL    HW161243   6.411   0.022   6.233 -0.1337  0.9806 -2.6072
19934SOL    HW261244   6.307   0.112   6.171 -2.7115 -0.7102 -0.9054
19935SOL     OW61245   1.211   7.564   6.530  0.0273  0.1470 -0.4879
19935SOL    HW161246   1.159   7.576   6.609 -1.0533  2.4861 -1.4510
19935SOL    HW261247   1.147   7.556   6.459  0.8255  3.1755 -1.7281
19936SOL     OW61248   4.964   1.433   6.037 -0.1170 -0.2431  0.3781
19936SOL    HW161249   4.917   1.495   5.981  0.7691 -0.4200 -0.5813
19936SOL    HW261250   4.927   1.348   6.013  0.0211 -0.2824  0.3032
19937SOL     OW61251   0.339   2.760   8.991  0.0796 -0.4561  0.2286
19937SOL    HW161252   0.300   2.814   8.922  0.4015  0.8834  1.0619
19937SOL    HW261253   0.272   2.694   9.010 -1.3955  1.1717  0.9263
19938SOL     OW61254   6.704   2.739   5.764 -0.6954 -0.1652 -0.0009
19938SOL    HW161255   6.658   2.756   5.847  0.7988  0.5804  0.7287
19938SOL    HW261256   6.669   2.656   5.733 -1.8091 -0.1012  1.0152
19939SOL     OW61257   6.847   1.226   4.784 -0.1156 -0.4447  0.0114
19939SOL    HW161258   6.828   1.298   4.843 -3.1840 -0.9836 -0.1790
19939SOL    HW261259   6.834   1.147   4.837  1.6279 -0.9444 -0.2192
19940SOL     OW61260   3.610   6.469   3.468 -0.4143  0.4806 -0.2891
19940SOL    HW161261   3.695   6.443   3.434 -0.6897 -0.1834 -0.4804
19940SOL    HW261262   3.593   6.554   3.428 -0.6952 -0.2393 -1.7708
19941SOL     OW61263   7.169   0.238   7.486  0.3809  0.0810  0.5492
19941SOL    HW161264   7.143   0.247   7.394  0.4261 -0.2453  0.5028
19941SOL    HW261265   7.087   0.229   7.534  0.4046 -2.1782  0.2692
19942SOL     OW61266   6.697   1.454  11.037  0.0342 -0.3774 -0.5970
19942SOL    HW161267   6.739   1.393  10.977 -0.1725 -0.5217 -0.5994
19942SOL    HW261268   6.750   1.450  11.117 -0.8879 -1.8184  0.0027
19943SOL     OW61269   2.856   3.975   0.984  0.6072  0.4762  0.3948
19943SOL    HW161270   2.809   4.005   1.062 -1.3596 -1.3191 -0.0224
19943SOL    HW261271   2.878   3.884   1.003  0.0630 -0.0022 -1.1228
19944SOL     OW61272   5.895   3.154  11.791 -0.5281 -0.1960 -0.0832
19944SOL    HW161273   5.950   3.078  11.809 -0.2777  0.3744  1.7858
19944SOL    HW261274   5.825   3.120  11.735  0.0631 -1.5902 -0.0239
19945SOL     OW61275   1.587   2.486   6.487  0.7726  0.1776  0.2785
19945SOL    HW161276   1.570   2.476   6.581  0.6172  1.5302  0.4261
19945SOL    HW261277   1.557   2.404   6.448  1.6290 -0.7559  1.4917
19946SOL     OW61278   1.107   0.370  10.922 -0.4365  0.6257 -0.5509
19946SOL    HW161279   1.074   0.407  10.840 -1.8169 -1.9302 -1.2479
19946SOL    HW261280   1.159   0.294  10.895  0.2845  0.5676  0.8947
19947SOL     OW61281   4.181   6.348   0.262  0.1772  0.4729 -0.5813
19947SOL    HW161282   4.172   6.261   0.223  1.5747 -0.1618  0.4206
19947SOL    HW261283   4.101   6.394   0.237 -0.8316 -1.2693 -0.7175
19948SOL     OW61284   6.856   3.577   8.916 -0.2321 -0.3457 -0.3832
19948SOL    HW161285   6.861   3.482   8.902 -1.0525 -0.6461  1.1090
19948SOL    HW261286   6.772   3.602   8.879 -0.1962 -0.2635 -0.4102
19949SOL     OW61287   7.349   5.510  12.033 -0.3434  0.3210  0.4209
19949SOL    HW161288   7.431   5.510  12.081 -0.2914 -1.4890  0.3871
19949SOL    HW261289   7.374   5.513  11.941 -0.3568  0.5375  0.4211
19950SOL     OW61290   5.775   7.424   8.180  0.1528 -0.4214  0.1268
19950SOL    HW161291   5.748   7.369   8.254  1.2523  1.4569  2.0577
19950SOL    HW261292   5.764   7.513   8.212  0.6931  0.4669 -2.0191
19951SOL     OW61293   0.977   1.342  10.452 -0.0457 -0.0655  0.1387
19951SOL    HW161294   0.908   1.293  10.407 -0.4516  0.0966  0.5763
19951SOL    HW261295   0.995   1.417  10.395  1.7608 -1.5618 -1.3808
19952SOL     OW61296   0.235   1.968  10.869  0.1064  0.0169  0.3768
19952SOL    HW161297   0.301   2.037  10.881  0.7467 -0.3020 -1.1144
19952SOL    HW261298   0.154   2.016  10.854  0.5560  0.4778 -0.6981
19953SOL     OW61299   0.116   5.244   0.338 -0.9297 -0.0361  0.3794
19953SOL    HW161300   0.208   5.246   0.313 -1.0502  0.6846 -0.0529
19953SOL    HW261301   0.090   5.153   0.328  0.0084 -0.4571  1.5500
19954SOL     OW61302   3.439   2.112   1.106  0.6948  0.4541 -0.4417
19954SOL    HW161303   3.349   2.095   1.134  1.1310 -2.9697 -0.6923
19954SOL    HW261304   3.477   2.164   1.177 -0.1957 -2.0895  2.0650
19955SOL     OW61305   2.054   4.330   0.481  0.6107  0.6920  0.5716
19955SOL    HW161306   2.110   4.345   0.557  2.8686 -1.2109 -0.5500
19955SOL    HW261307   2.116   4.322   0.408 -1.1395 -1.3871 -0.8117
19956SOL     OW61308   1.911   3.206  11.547  0.2584 -1.2680 -0.1652
19956SOL    HW161309   1.930   3.199  11.641  0.5932 -1.2777 -0.2310
19956SOL    HW261310   1.835   3.150  11.533 -0.3678 -0.5455  0.2676
19957SOL     OW61311   6.664   4.358   1.423  0.2592  0.3634 -0.3142
19957SOL    HW161312   6.575   4.393   1.412  0.1165  0.0022 -0.3285
19957SOL    HW261313   6.719   4.415   1.369 -0.0213  0.3581 -0.6097
19958SOL     OW61314   7.543   5.607  11.411 -0.1581  0.1636  0.1082
19958SOL    HW161315   7.464   5.572  11.368  0.5669 -0.6194 -0.6124
19958SOL    HW261316   7.531   5.702  11.408 -0.4290  0.1067 -1.2560
19959SOL     OW61317   6.105   7.716  10.825  0.7656  0.7453  0.0698
19959SOL    HW161318   6.079   7.672  10.744 -0.0653  1.4290 -0.0564
19959SOL    HW261319   6.200   7.726  10.818  0.8251 -0.0679 -0.3713
19960SOL     OW61320   3.184   5.769   5.261 -0.7370 -0.1331  0.2758
19960SOL    HW161321   3.267   5.752   5.215 -0.1482  0.4472  1.1039
19960SOL    HW261322   3.123   5.790   5.191  0.5012  2.1964 -0.2100
19961SOL     OW61323   2.781   2.247   7.985  0.5007 -0.0355 -0.2943
19961SOL    HW161324   2.797   2.205   8.070  1.3361  0.3622 -0.2433
19961SOL    HW261325   2.686   2.255   7.980  0.4703  0.8655  1.0821
19962SOL     OW61326   7.556   3.733   3.590  0.0681 -0.1189  0.2587
19962SOL    HW161327   7.546   3.787   3.511 -0.4874 -0.3693  0.1459
19962SOL    HW261328   7.640   3.689   3.578  0.1859  0.1682  0.0053
19963SOL     OW61329   7.321   4.999   6.582  0.4216  0.1697 -0.1921
19963SOL    HW161330   7.367   5.024   6.662  0.4227  0.8285 -0.3922
19963SOL    HW261331   7.263   4.928   6.609  1.1652 -0.3070  0.1716
19964SOL     OW61332   7.173   6.388  10.645  0.2898  0.2312 -0.0511
19964SOL    HW161333   7.157   6.362  10.554 -1.6607  0.5181  0.1742
19964SOL    HW261334   7.169   6.483  10.643  2.3205  0.3615  0.0181
19965SOL     OW61335   5.760   2.478   3.927 -0.1488  0.2474  0.1465
19965SOL    HW161336   5.681   2.495   3.875 -1.0587  3.0297  2.1472
19965SOL    HW261337   5.728   2.432   4.005 -0.6491  4.1555  2.5573
19966SOL     OW61338   2.864   5.814   2.361  0.1658 -0.6222 -0.0542
19966SOL    HW161339   2.853   5.740   2.301 -0.6524 -3.4391  3.2962
19966SOL    HW261340   2.953   5.845   2.344  0.2003 -1.7118 -2.1879
19967SOL     OW61341   4.519   5.877  12.415 -0.5145  0.1456 -0.0797
19967SOL    HW161342   4.566   5.846  12.492 -0.2115 -1.7481 -0.9803
19967SOL    HW261343   4.519   5.803  12.354 -1.0714  1.4484 -1.7681
19968SOL     OW61344   0.032   1.790   3.851 -0.8015  0.2526  0.0766
19968SOL    HW161345  -0.022   1.786   3.930 -2.0395 -1.1716 -0.7728
19968SOL    HW261346   0.115   1.748   3.876 -1.1602 -0.1333  0.6418
19969SOL     OW61347   2.998   3.789   2.465 -0.1355  0.0971  0.0260
19969SOL    HW161348   2.962   3.842   2.394  0.7481  1.2353  0.4008
19969SOL    HW261349   3.087   3.768   2.436  0.1329  0.3335  0.6603
19970SOL     OW61350   3.637   0.019   8.717 -0.4772 -0.6441 -0.4794
19970SOL    HW161351   3.700   0.040   8.785 -0.6897  0.0334 -0.4867
19970SOL    HW261352   3.677  -0.054   8.669  0.6198  0.2006 -0.9062
19971SOL     OW61353   5.084   1.594  11.680  0.0348 -0.2233 -0.4993
19971SOL    HW161354   5.150   1.651  11.719  0.0161  0.2957 -1.2221
19971SOL    HW261355   5.096   1.604  11.586  0.5038 -1.9492 -0.6605
19972SOL     OW61356   4.378   3.238   6.643  0.3610 -0.5812 -0.9221
19972SOL    HW161357   4.362   3.163   6.586  0.9948 -1.0022 -0.5650
19972SOL    HW261358   4.432   3.297   6.590 -0.0916 -0.3963 -1.1833
19973SOL     OW61359   6.399   0.962   0.999 -0.2518 -0.1814 -0.5296
19973SOL    HW161360   6.409   0.870   1.023 -0.0773  0.5457  2.6445
19973SOL    HW261361   6.476   1.005   1.035 -0.7809  1.3509 -1.1440
19974SOL     OW61362   5.144   0.062   7.283 -0.0132 -0.3581  0.7044
19974SOL    HW161363   5.123   0.131   7.221 -3.3221 -0.4399  1.5176
19974SOL    HW261364   5.184   0.107   7.358 -2.7417  0.9028  1.5134
19975SOL     OW61365   2.211   4.316  12.335 -0.1271  0.2135  0.5657
19975SOL    HW161366   2.245   4.405  12.346  1.3551  0.0413 -1.8341
19975SOL    HW261367   2.290   4.263  12.318 -1.2251 -0.9204 -1.3571
19976SOL     OW61368   4.619   4.089   5.956  0.5503 -0.1354  0.4119
19976SOL    HW161369   4.692   4.150   5.965 -0.8314  2.3648 -2.9244
19976SOL    HW261370   4.554   4.120   6.019 -0.1427  2.1265 -1.2392
19977SOL     OW61371   2.899   3.103   9.756  0.2199 -0.6267  0.0114
19977SOL    HW161372   2.951   3.138   9.683 -0.5452 -0.4098 -0.4351
19977SOL    HW261373   2.834   3.170   9.774  0.6915 -0.4652  1.2293
19978SOL     OW61374   1.392   1.647   2.837  0.1962  0.1683  0.1193
19978SOL    HW161375   1.411   1.554   2.849  1.0983  0.5511  2.0649
19978SOL    HW261376   1.297   1.650   2.822  0.2657 -1.1089 -0.6992
19979SOL     OW61377   2.286   1.449   7.755 -0.3624  0.1411  0.5315
19979SOL    HW161378   2.347   1.376   7.746 -0.1999  0.3568 -0.2081
19979SOL    HW261379   2.340   1.527   7.742 -0.8573  0.3231 -0.5029
19980SOL     OW61380   1.016   2.588   0.048 -0.0875  0.3297 -0.2060
19980SOL    HW161381   1.038   2.510   0.099 -1.0300 -0.4421 -0.9366
19980SOL    HW261382   0.949   2.632   0.100  1.0596  1.1385  0.6262
19981SOL     OW61383   4.199   0.540   0.406  0.4363 -0.4048 -0.0291
19981SOL    HW161384   4.235   0.481   0.472 -0.5640 -2.5858 -1.3318
19981SOL    HW261385   4.259   0.533   0.332 -0.0294 -0.2923 -0.4253
19982SOL     OW61386   7.620   5.570   6.913  0.1084  0.5115 -0.3660
19982SOL    HW161387   7.592   5.625   6.986  0.8856  1.0802 -0.4789
19982SOL    HW261388   7.554   5.501   6.908 -0.2200  0.7430  0.5574
19983SOL     OW61389   6.572   5.673   8.709 -0.5822 -0.4713 -0.5597
19983SOL    HW161390   6.643   5.734   8.727  0.0949 -1.5876  0.7336
19983SOL    HW261391   6.495   5.712   8.751 -0.9529  1.0947 -2.5647
19984SOL     OW61392   5.860   4.088   4.936 -0.2393 -0.2237 -0.2403
19984SOL    HW161393   5.940   4.077   4.885 -0.0784  0.0071 -0.0388
19984SOL    HW261394   5.866   4.177   4.971 -1.2136  0.2887 -1.3178
19985SOL     OW61395   3.538   5.569   1.476 -0.2241 -0.4313 -0.0147
19985SOL    HW161396   3.555   5.476   1.484  0.5676 -0.2944 -0.0765
19985SOL    HW261397   3.463   5.585   1.534 -0.8309 -1.2281 -0.5566
19986SOL     OW61398   4.596   4.522   5.431  0.9056  0.4506  0.3536
19986SOL    HW161399   4.549   4.456   5.381  0.8335 -0.0832  1.1178
19986SOL    HW261400   4.532   4.592   5.445  0.6659  0.2090  0.4664
19987SOL     OW61401   2.139   2.094   3.178  0.3826  0.5059  0.1674
19987SOL    HW161402   2.224   2.101   3.220  0.4370  0.6965  0.0259
19987SOL    HW261403   2.094   2.176   3.200  0.1692  0.3300  0.3903
19988SOL     OW61404   4.056   2.081   1.758  0.0554  0.1636 -0.3399
19988SOL    HW161405   4.113   2.130   1.698 -0.2960  1.1147  0.0938
19988SOL    HW261406   4.078   1.989   1.740  1.3870  0.4831 -0.5143
19989SOL     OW61407   0.579   2.377  11.009 -0.0294  0.0286  0.2158
19989SOL    HW161408   0.542   2.434  10.942 -0.9269 -0.0210  0.6624
19989SOL    HW261409   0.548   2.413  11.092  0.0131 -0.6583  0.5406
19990SOL     OW61410   0.359   3.511   7.380  1.0634 -0.1751 -0.1915
19990SOL    HW161411   0.314   3.485   7.460 -0.1209  1.6542 -0.2022
19990SOL    HW261412   0.433   3.564   7.411 -0.0655  1.5299 -0.2690
19991SOL     OW61413   0.896   7.771   9.694  0.2448  0.2702 -0.3945
19991SOL    HW161414   0.947   7.850   9.713  1.8223  0.5026 -4.6602
19991SOL    HW261415   0.824   7.802   9.638 -1.0983 -0.9414  0.5770
19992SOL     OW61416   2.384   0.933   7.932  0.9713 -0.5235 -0.3575
19992SOL    HW161417   2.431   0.863   7.887  0.2451 -2.2856  1.4843
19992SOL    HW261418   2.451   0.975   7.987  1.2835 -0.1187 -1.0302
19993SOL     OW61419   5.305   0.652   7.395  0.4277 -0.1230 -0.8593
19993SOL    HW161420   5.281   0.582   7.334  1.1918 -0.2346 -1.0323
19993SOL    HW261421   5.354   0.609   7.464 -1.1781 -0.1424  0.3274
19994SOL     OW61422   3.239   5.799   7.426  0.2578 -0.9127  0.3411
19994SOL    HW161423   3.259   5.886   7.394 -0.8586 -0.6216  0.3962
19994SOL    HW261424   3.211   5.812   7.516  1.8737 -1.5531  0.9669
19995SOL     OW61425   3.104   2.552  12.029 -0.3015  0.3596  0.1292
19995SOL    HW161426   3.057   2.539  12.112 -1.9993 -1.6905 -1.0621
19995SOL    HW261427   3.152   2.470  12.016  0.6567  1.0041 -0.5227
19996SOL     OW61428   7.506   1.989  11.856  0.0350 -0.3969 -0.0181
19996SOL    HW161429   7.570   2.048  11.897  2.3102 -2.8589  0.2390
19996SOL    HW261430   7.453   1.957  11.929  0.0595 -0.1487  0.1121
19997SOL     OW61431   1.572   5.492   1.800 -0.0497 -0.2326  0.0164
19997SOL    HW161432   1.502   5.458   1.744 -1.9625  1.4652  1.2425
19997SOL    HW261433   1.576   5.430   1.873  0.0547 -0.5942 -0.2943
19998SOL     OW61434   2.864   1.194   4.674 -0.3737  0.3138  0.0022
19998SOL    HW161435   2.782   1.239   4.695  0.0039  1.2338 -0.4344
19998SOL    HW261436   2.926   1.226   4.740 -0.2463 -0.0348  0.0547
19999SOL     OW61437   6.322   5.415   7.296  0.3124  0.6373  0.0976
19999SOL    HW161438   6.377   5.383   7.368  0.5635  1.2106  0.1598
19999SOL    HW261439   6.344   5.507   7.288 -0.2514  0.7443 -0.2352
20000SOL     OW61440   3.461   6.646   2.348 -0.0799  0.2299  0.0849
20000SOL    HW161441   3.554   6.646   2.325 -0.2728  0.7583 -0.7385
20000SOL    HW261442   3.443   6.736   2.376 -0.9683  0.9571 -2.5402
20001SOL     OW61443   5.209   2.608   4.851  0.0609  0.1233  0.5766
20001SOL    HW161444   5.154   2.547   4.802 -1.4470  0.6763  1.4803
20001SOL    HW261445   5.153   2.685   4.864  0.6990  0.3404  2.3641
20002SOL     OW61446   4.677   2.404   1.894 -0.2999 -0.1505 -0.2154
20002SOL    HW161447   4.614   2.426   1.963 -0.2646 -0.0238 -0.2223
20002SOL    HW261448   4.639   2.442   1.814 -1.6385 -2.4857 -0.7775
20003SOL     OW61449   4.804   7.598   5.167 -0.3893 -0.5496 -0.0170
20003SOL    HW161450   4.764   7.663   5.110 -0.4421  0.0028  0.6326
20003SOL    HW261451   4.731   7.567   5.222  0.0740  0.5981  1.3053
20004SOL     OW61452   1.620   1.130   8.581 -0.2051  0.1596  0.5203
20004SOL    HW161453   1.622   1.205   8.521 -2.4190  0.9290  1.2908
20004SOL    HW261454   1.527   1.112   8.592  0.1912 -0.8266  2.6686
20005SOL     OW61455   0.250   1.136   4.961 -0.2296 -0.6523  0.2462
20005SOL    HW161456   0.176   1.083   4.931  1.0422 -1.4202 -1.7428
20005SOL    HW261457   0.311   1.072   4.999 -0.2061 -0.1329  1.0971
20006SOL     OW61458   0.635   5.359  10.117 -0.4361  0.4530 -0.0773
20006SOL    HW161459   0.678   5.273  10.110 -0.9565  0.2491 -0.8267
20006SOL    HW261460   0.610   5.366  10.209  0.1776  0.0764  0.1240
20007SOL     OW61461   6.552   4.418   0.199 -0.2593 -0.1242  0.2672
20007SOL    HW161462   6.631   4.455   0.238 -0.7232 -0.6318  1.7531
20007SOL    HW261463   6.484   4.430   0.267 -1.0878 -1.0950 -0.3651
20008SOL     OW61464   2.620   3.974   5.546 -0.3968 -0.0024  0.2090
20008SOL    HW161465   2.582   3.947   5.462 -0.4831  1.4013 -0.2279
20008SOL    HW261466   2.554   4.031   5.585  0.7822  1.5852 -0.0503
20009SOL     OW61467   6.694   4.558   5.283  0.4252 -0.1210 -0.2467
20009SOL    HW161468   6.709   4.466   5.263  0.7439 -0.1223 -0.0126
20009SOL    HW261469   6.742   4.573   5.365 -1.1661 -0.2179  0.7430
20010SOL     OW61470   1.266   5.342   7.129 -0.1277 -0.1776  0.2103
20010SOL    HW161471   1.320   5.403   7.079 -1.1932 -0.1773 -0.9990
20010SOL    HW261472   1.266   5.261   7.077 -0.0087 -0.6959  1.0000
20011SOL     OW61473   6.276   2.770   5.247  0.1570 -0.4146 -0.1882
20011SOL    HW161474   6.277   2.856   5.290  0.1957  0.2339 -1.4442
20011SOL    HW261475   6.211   2.779   5.177 -0.2457 -1.6004  0.0196
20012SOL     OW61476   0.232   7.360   0.486  0.0233  0.7906  0.4093
20012SOL    HW161477   0.296   7.423   0.520  2.5219 -1.2806 -0.1743
20012SOL    HW261478   0.249   7.279   0.535 -0.6431 -0.4540 -1.3043
20013SOL     OW61479   0.320   5.043   6.143  0.3106  0.4717 -1.0849
20013SOL    HW161480   0.392   5.006   6.091  0.3277  0.0653 -0.7778
20013SOL    HW261481   0.325   5.137   6.126  0.6351  0.4013 -1.4189
20014SOL     OW61482   3.788   0.019  11.375  0.1062  0.2799 -0.7165
20014SOL    HW161483   3.801  -0.054  11.436  0.7538  1.2613  0.3597
20014SOL    HW261484   3.874   0.032  11.334  0.4502  1.4607  0.3098
20015SOL     OW61485   7.948   4.921   0.061 -0.1852 -0.1890  0.8777
20015SOL    HW161486   7.888   4.846   0.062 -0.5113  0.0585  1.9162
20015SOL    HW261487   7.893   4.995   0.036 -0.1761 -0.0740  1.1900
20016SOL     OW61488   1.258   3.025  11.602  0.3678  0.1755  0.3909
20016SOL    HW161489   1.174   3.037  11.557  1.2192 -2.0681 -2.0720
20016SOL    HW261490   1.244   2.950  11.660  0.8071 -0.7098 -0.6061
20017SOL     OW61491   0.479   1.423   9.124  0.3256 -0.4918 -0.3288
20017SOL    HW161492   0.503   1.466   9.207  0.5746 -0.3774 -0.4596
20017SOL    HW261493   0.537   1.463   9.059  0.1061 -0.5582 -0.5646
20018SOL     OW61494   4.445   4.748   6.613  0.1000  0.3157 -0.0320
20018SOL    HW161495   4.414   4.759   6.524  0.6696  0.3270 -0.2323
20018SOL    HW261496   4.488   4.662   6.614  1.1947  0.8426 -0.1032
20019SOL     OW61497   7.236   6.564   3.560 -0.4995 -0.2365 -0.3011
20019SOL    HW161498   7.196   6.606   3.636  0.2906 -1.2336  0.7050
20019SOL    HW261499   7.193   6.480   3.553  0.4320 -0.7505 -0.0530
20020SOL     OW61500   2.972   0.252   9.873 -0.2661  0.3990 -0.2671
20020SOL    HW161501   3.060   0.273   9.904 -0.2880 -0.3647  0.3454
20020SOL    HW261502   2.982   0.240   9.778  0.7325 -1.7225  0.0438
20021SOL     OW61503   2.586   1.609   0.627  0.1545 -0.2068  0.0221
20021SOL    HW161504   2.678   1.635   0.625  0.0320  0.2284 -2.0134
20021SOL    HW261505   2.558   1.625   0.718  1.7810  0.6895  0.3968
20022SOL     OW61506   3.984   5.470   6.526 -0.0221 -0.2791 -0.1047
20022SOL    HW161507   3.904   5.509   6.491  0.4433  0.1596 -0.6908
20022SOL    HW261508   3.959   5.437   6.612 -0.5415  0.9094  0.2170
20023SOL     OW61509   4.175   0.431   8.881  0.8216  0.2298  0.4225
20023SOL    HW161510   4.232   0.507   8.893 -0.3934  1.4973 -1.2484
20023SOL    HW261511   4.086   0.465   8.894  0.2637 -0.9749 -0.0387
20024SOL     OW61512   1.645   7.258  10.521  0.4511  0.0195 -0.4961
20024SOL    HW161513   1.716   7.303  10.476  1.6737 -1.3994 -0.0748
20024SOL    HW261514   1.569   7.269  10.464  1.2380  0.7660 -1.4208
20025SOL     OW61515   4.885   1.466   1.274  0.2312 -0.3333  0.0453
20025SOL    HW161516   4.844   1.487   1.358  0.6980  1.2560 -0.0848
20025SOL    HW261517   4.836   1.391   1.242 -1.1565  0.1619  0.8969
20026SOL     OW61518   3.748   1.545   9.472 -0.4223 -0.1393 -0.3328
20026SOL    HW161519   3.765   1.631   9.510  1.2702  0.2220 -1.7758
20026SOL    HW261520   3.678   1.561   9.408 -0.8282 -0.0569  0.1261
20027SOL     OW61521   4.158   4.583   6.357  0.0208 -0.1116 -0.9022
20027SOL    HW161522   4.097   4.545   6.420  0.8638 -1.9453 -1.1417
20027SOL    HW261523   4.190   4.663   6.399 -3.0178  1.3078 -1.0589
20028SOL     OW61524   7.800   6.622   2.756  0.1673  0.1944 -0.0825
20028SOL    HW161525   7.803   6.689   2.825  1.7116 -0.3862  0.4556
20028SOL    HW261526   7.801   6.672   2.674 -0.3967  0.8564  0.3015
20029SOL     OW61527   1.384   0.382   1.909 -0.1125  0.4071 -0.0226
20029SOL    HW161528   1.289   0.394   1.918 -0.3668 -0.2036 -1.6797
20029SOL    HW261529   1.394   0.294   1.872  1.0468  0.8822 -0.8944
20030SOL     OW61530   0.898   3.968   7.116 -0.1236  0.3617 -0.5380
20030SOL    HW161531   0.982   3.922   7.120  0.4090  1.3871  1.4170
20030SOL    HW261532   0.862   3.945   7.031  1.4353 -1.3275 -0.8003
20031SOL     OW61533   6.641   2.449   8.973 -0.0760  0.3672  0.1043
20031SOL    HW161534   6.715   2.423   8.918 -0.7493  0.5730 -0.9214
20031SOL    HW261535   6.608   2.530   8.933 -0.7943  0.3363  0.6094
20032SOL     OW61536   7.088   1.986  11.140  0.6054  0.3136 -0.2390
20032SOL    HW161537   7.173   2.010  11.102 -0.0290  2.2378 -0.5764
20032SOL    HW261538   7.072   1.897  11.109  3.0270 -0.5758  0.8313
20033SOL     OW61539   2.137   5.068   3.112  0.6998 -0.3706 -0.5170
20033SOL    HW161540   2.215   5.105   3.154 -0.3188  0.6970  0.5061
20033SOL    HW261541   2.106   5.001   3.173 -1.9186  2.5160  1.6316
20034SOL     OW61542   3.139   0.786   4.659  1.1061  0.4169 -0.0006
20034SOL    HW161543   3.096   0.704   4.686 -0.5666  1.5318  0.9178
20034SOL    HW261544   3.107   0.851   4.722  2.2412  1.8206 -0.8304
20035SOL     OW61545   0.133   7.801   6.658  0.2847 -0.3446 -0.2514
20035SOL    HW161546   0.105   7.710   6.650  1.1452 -0.7558  1.2166
20035SOL    HW261547   0.197   7.813   6.588 -1.2358 -0.2530 -1.7174
20036SOL     OW61548   5.463   5.951   9.876 -0.0760 -0.2045  0.1497
20036SOL    HW161549   5.462   6.012   9.803 -0.7860 -0.8492 -0.4036
20036SOL    HW261550   5.549   5.908   9.871  0.2978  0.5125  0.3544
20037SOL     OW61551   2.102   6.518   3.770  0.5869  0.5230 -0.6105
20037SOL    HW161552   2.198   6.519   3.776  0.6665  0.8159 -1.7826
20037SOL    HW261553   2.074   6.484   3.855  1.7383  0.1780 -0.3438
20038SOL     OW61554   5.753   2.831   4.135 -0.1887 -0.1820  0.2504
20038SOL    HW161555   5.695   2.755   4.148 -0.6381  0.4510  2.3018
20038SOL    HW261556   5.694   2.899   4.101  0.2504 -0.7472 -1.7698
20039SOL     OW61557   2.548   7.874   2.120 -0.3526  0.0323  0.1006
20039SOL    HW161558   2.492   7.802   2.089  1.3742 -1.1016 -0.5496
20039SOL    HW261559   2.542   7.869   2.216 -0.4065 -0.8553  0.0623
20040SOL     OW61560   7.220   5.006   1.166 -0.2584  0.2705  0.0343
20040SOL    HW161561   7.246   5.048   1.248 -0.5244  0.6662 -0.0831
20040SOL    HW261562   7.302   4.979   1.126 -0.1629 -0.5227  0.7451
20041SOL     OW61563   3.765   5.371   9.538 -0.1258 -0.0547  0.2751
20041SOL    HW161564   3.814   5.379   9.456 -0.7867 -1.5269 -0.2915
20041SOL    HW261565   3.821   5.413   9.604  2.2100 -2.1138 -0.2445
20042SOL     OW61566   6.252   1.532   9.962  0.4451 -0.2533  0.7420
20042SOL    HW161567   6.185   1.582  10.008  0.6763  1.4072 -0.6113
20042SOL    HW261568   6.324   1.594   9.949  1.0044 -1.1090 -0.4590
20043SOL     OW61569   2.947   4.954   6.006 -0.6437  0.0326 -0.1596
20043SOL    HW161570   2.953   4.913   6.092  2.3985 -1.0859 -0.7787
20043SOL    HW261571   2.864   4.923   5.970 -1.2316 -0.7440  1.7345
20044SOL     OW61572   5.990   7.301   4.350 -0.0453 -0.2855  0.8251
20044SOL    HW161573   6.012   7.315   4.258 -0.1297  0.3887  0.8990
20044SOL    HW261574   5.983   7.206   4.360 -1.8535 -0.3118 -0.2882
20045SOL     OW61575   0.068   2.477   1.415 -0.1106  0.4941 -0.1537
20045SOL    HW161576   0.029   2.493   1.500  0.6465 -1.5967  0.6544
20045SOL    HW261577   0.152   2.524   1.418  0.6578 -0.8911  0.9250
20046SOL     OW61578   1.002   5.417   1.121 -0.0854  0.2955 -0.8185
20046SOL    HW161579   0.952   5.459   1.191  0.8715 -1.0919  0.7767
20046SOL    HW261580   1.058   5.486   1.086  0.2610  0.7654  0.6064
20047SOL     OW61581   5.996   2.906   3.130  0.2383 -0.7775 -0.1979
20047SOL    HW161582   5.964   2.819   3.154  0.1985 -0.6650  0.1626
20047SOL    HW261583   5.954   2.924   3.045  0.6688 -1.3337 -0.5386
20048SOL     OW61584   7.153   2.532   5.243  0.0826 -0.4653 -0.6601
20048SOL    HW161585   7.136   2.612   5.192  0.0042  1.4412  2.1308
20048SOL    HW261586   7.242   2.507   5.219 -1.1135 -1.9262 -4.4050
20049SOL     OW61587   5.259   4.878   4.900 -0.0667 -0.0381  0.5055
20049SOL    HW161588   5.197   4.920   4.959  0.7281 -0.5884  1.7893
20049SOL    HW261589   5.263   4.935   4.823 -0.7834  0.9501  1.1882
20050SOL     OW61590   2.391   4.228   9.420  0.3989  0.1892 -0.2421
20050SOL    HW161591   2.388   4.314   9.463  0.4866  0.6375 -1.1066
20050SOL    HW261592   2.366   4.166   9.489  0.7187  0.8637  0.4976
20051SOL     OW61593   2.802   5.632   5.725 -0.7804  0.6438  0.2903
20051SOL    HW161594   2.751   5.553   5.706 -1.1261  0.9056  0.1021
20051SOL    HW261595   2.838   5.658   5.641  0.1231  0.1588  0.5127
20052SOL     OW61596   4.265   6.828   7.496 -0.2144 -0.8327  0.5800
20052SOL    HW161597   4.201   6.808   7.429  0.4526  1.8856 -1.0074
20052SOL    HW261598   4.348   6.796   7.461  0.0102 -0.1661  0.5041
20053SOL     OW61599   4.255   2.271   6.444  0.4652 -0.0943  0.2682
20053SOL    HW161600   4.266   2.298   6.353 -1.1216 -0.3601 -0.0260
20053SOL    HW261601   4.250   2.175   6.439 -1.0607 -0.0343  0.4514
20054SOL     OW61602   0.352   5.712  11.032 -0.4619  0.1831 -0.2333
20054SOL    HW161603   0.422   5.749  10.978  1.0248  0.8131  1.9940
20054SOL    HW261604   0.286   5.781  11.036  0.2031  0.8021  0.1555
20055SOL     OW61605   0.042   5.476   8.196  0.4871 -0.3703  0.1424
20055SOL    HW161606   0.117   5.531   8.177 -0.7357  0.5992 -2.3046
20055SOL    HW261607   0.030   5.484   8.291  1.2572  2.4187  0.0927
20056SOL     OW61608   2.510   7.725   6.960 -0.0779 -0.0162 -0.4389
20056SOL    HW161609   2.576   7.750   6.895 -1.7018  1.2222 -1.7008
20056SOL    HW261610   2.456   7.661   6.915 -0.2749 -0.3772  0.2919
20057SOL     OW61611   7.832   5.349   0.229  0.4020 -0.1763 -0.1421
20057SOL    HW161612   7.877   5.413   0.174 -1.6605  2.1228  0.6592
20057SOL    HW261613   7.891   5.273   0.231  1.7280  0.5834 -3.3634
20058SOL     OW61614   5.156   2.063   1.140  0.0527 -0.1396  0.2660
20058SOL    HW161615   5.177   1.985   1.089  3.2493 -0.5971  2.0292
20058SOL    HW261616   5.164   2.135   1.078  3.9402 -0.6661 -0.0867
20059SOL     OW61617   5.351   0.347  10.984 -0.6930  0.2568 -0.0363
20059SOL    HW161618   5.346   0.277  11.049  0.1668 -0.0734 -0.3130
20059SOL    HW261619   5.323   0.426  11.032 -0.6309 -0.0807  0.5681
20060SOL     OW61620   2.445   1.696   1.593  0.3502  0.2927  0.2021
20060SOL    HW161621   2.528   1.655   1.570 -0.0669 -0.3037 -0.2564
20060SOL    HW261622   2.386   1.674   1.520 -1.0225 -1.6524  1.7922
20061SOL     OW61623   5.212   6.198   6.803 -0.4591 -0.0179 -0.2156
20061SOL    HW161624   5.199   6.285   6.767  1.2992  0.9832  1.3880
20061SOL    HW261625   5.273   6.156   6.741 -0.0482  0.4765 -0.1522
20062SOL     OW61626   5.478   3.128   8.231 -0.7847  0.2663  0.0350
20062SOL    HW161627   5.465   3.055   8.292 -1.5452  0.8457  0.5890
20062SOL    HW261628   5.390   3.156   8.208 -0.5232  1.6331  0.5961
20063SOL     OW61629   1.867   1.391   2.935 -0.3183 -0.0906 -0.1977
20063SOL    HW161630   1.919   1.431   3.005  0.1569  0.3016 -0.7654
20063SOL    HW261631   1.778   1.389   2.969 -0.3847  1.6342 -0.2210
20064SOL     OW61632   2.592   7.351   4.841  0.2577  0.9556  0.1082
20064SOL    HW161633   2.590   7.291   4.766  1.6057  0.7636  0.2001
20064SOL    HW261634   2.633   7.430   4.807 -0.5650  1.4619  0.2597
20065SOL     OW61635   5.667   1.028   3.167 -0.2736  0.2235  0.0866
20065SOL    HW161636   5.638   1.114   3.139  0.3437  0.0412 -1.1725
20065SOL    HW261637   5.587   0.975   3.170 -0.4289  0.3898 -0.8432
20066SOL     OW61638   0.571   5.687   9.608  0.3250 -0.5376  0.2934
20066SOL    HW161639   0.631   5.679   9.682  0.6212 -0.0600  0.1111
20066SOL    HW261640   0.502   5.746   9.640  0.6180 -0.0763  0.0946
20067SOL     OW61641   6.611   7.967   7.610  0.4398 -0.3451  0.8031
20067SOL    HW161642   6.614   8.054   7.569  4.1081 -0.1159  1.2329
20067SOL    HW261643   6.528   7.965   7.656 -0.9925  1.8512 -1.4219
20068SOL     OW61644   2.338   6.226   2.358 -0.0687  0.0754 -0.0743
20068SOL    HW161645   2.337   6.175   2.276  0.9921  0.0449 -0.0846
20068SOL    HW261646   2.382   6.307   2.335 -0.8190  0.5737  0.2003
20069SOL     OW61647   5.354   5.057   0.416  0.0204 -0.0683 -0.4176
20069SOL    HW161648   5.434   5.024   0.376  1.0490  0.6533  0.9340
20069SOL    HW261649   5.309   4.979   0.448  0.1012 -0.4928 -1.3011
20070SOL     OW61650   4.249   6.306   2.141  0.7084 -0.2364  0.2989
20070SOL    HW161651   4.191   6.382   2.150  0.6185 -0.2175 -0.4008
20070SOL    HW261652   4.191   6.231   2.142  0.5720 -0.1822 -1.1832
20071SOL     OW61653   2.942   4.118   1.460  0.4137 -0.0396  0.1761
20071SOL    HW161654   2.937   4.209   1.489 -1.3773 -0.0773  0.1203
20071SOL    HW261655   3.035   4.099   1.456  0.8285  1.8235  0.0906
20072SOL     OW61656   6.130   6.937   8.338  0.8423  0.1909  0.3674
20072SOL    HW161657   6.225   6.944   8.349  0.9411  0.3430 -0.4794
20072SOL    HW261658   6.115   6.968   8.249 -0.0313  0.3777  0.5757
20073SOL     OW61659   7.082   6.745   0.992 -0.2176 -0.2180 -0.1416
20073SOL    HW161660   7.165   6.757   0.946 -0.0780 -0.0469  0.1501
20073SOL    HW261661   7.088   6.804   1.067 -1.3317  1.1357 -1.0815
20074SOL     OW61662   4.284   4.309   9.491  0.1612  0.6316 -0.3686
20074SOL    HW161663   4.193   4.338   9.494 -0.5996 -1.6837  0.8460
20074SOL    HW261664   4.294   4.267   9.405  0.1161  0.9289 -0.5209
20075SOL     OW61665   2.481   5.888   4.567  0.3216 -0.1205 -0.4299
20075SOL    HW161666   2.539   5.832   4.618  0.0431  0.7054  0.8314
20075SOL    HW261667   2.398   5.888   4.616  0.0731  0.7454 -0.8312
20076SOL     OW61668   7.571   5.186   3.854 -0.4414 -0.8907  0.2383
20076SOL    HW161669   7.510   5.260   3.847 -0.9498 -1.2648  0.6691
20076SOL    HW261670   7.605   5.192   3.943 -1.0333 -1.5944  0.5209
20077SOL     OW61671   7.388   2.709   5.414  0.2543 -0.5305 -0.2602
20077SOL    HW161672   7.390   2.637   5.351 -1.6083  0.3803 -1.4660
20077SOL    HW261673   7.322   2.683   5.478 -0.7011  0.2372 -0.9118
20078SOL     OW61674   0.630   3.147   6.528  0.2372  0.0066 -0.0033
20078SOL    HW161675   0.684   3.133   6.451  1.5289  0.3896  0.7977
20078SOL    HW261676   0.541   3.160   6.494  0.6725 -0.4449 -1.3612
20079SOL     OW61677   5.745   6.935   4.746 -0.2134  0.0562  0.7877
20079SOL    HW161678   5.671   6.964   4.800 -0.0248  1.0496  0.5416
20079SOL    HW261679   5.822   6.956   4.799 -0.0884 -0.6911  0.9138
20080SOL     OW61680   5.996   2.328   7.578 -0.7406  0.3055  0.4098
20080SOL    HW161681   6.068   2.274   7.613 -1.3066 -0.6785  0.1023
20080SOL    HW261682   5.947   2.354   7.656  0.9311  2.5120  0.8119
20081SOL     OW61683   7.038   2.857   3.345 -0.2558  0.0550 -0.5378
20081SOL    HW161684   6.977   2.784   3.355 -0.8182  0.6452  0.7392
20081SOL    HW261685   7.124   2.819   3.361 -0.4325 -0.5289 -0.9517
20082SOL     OW61686   1.216   6.441   4.418 -0.1366  0.1649 -0.1850
20082SOL    HW161687   1.302   6.442   4.460 -0.2011  1.3964 -0.0335
20082SOL    HW261688   1.179   6.355   4.439  0.0176  0.5654  1.8975
20083SOL     OW61689   3.921   6.731   0.021 -0.1161  0.3835  0.6195
20083SOL    HW161690   3.840   6.765   0.061 -2.3225 -2.8159 -0.7225
20083SOL    HW261691   3.942   6.794  -0.047 -1.8684  0.9924  0.5835
20084SOL     OW61692   5.960   3.942  11.202 -0.4540 -0.4393 -0.1001
20084SOL    HW161693   6.005   3.889  11.136 -1.4883 -0.9988 -0.3905
20084SOL    HW261694   5.877   3.966  11.160 -0.6250  0.1841  0.5754
20085SOL     OW61695   2.132   2.176   1.468  0.2962 -0.1984 -0.2108
20085SOL    HW161696   2.191   2.106   1.441 -0.2374 -0.2595 -1.2445
20085SOL    HW261697   2.047   2.135   1.477 -0.5596  0.6853 -3.1583
20086SOL     OW61698   5.563   1.484   7.248  0.4490  0.3585  0.0521
20086SOL    HW161699   5.509   1.456   7.174  0.0063 -0.1462  0.5545
20086SOL    HW261700   5.586   1.575   7.228 -1.3582  0.8897  0.2595
20087SOL     OW61701   6.907   6.749   4.935 -0.1295  0.1836  0.0518
20087SOL    HW161702   6.916   6.748   4.839  1.4592  0.0169  0.1678
20087SOL    HW261703   6.996   6.732   4.967 -0.6193  0.3401  1.5630
20088SOL     OW61704   6.429   7.824   7.278 -0.1212 -0.1727  0.1690
20088SOL    HW161705   6.373   7.880   7.332 -0.3906 -1.6159  1.4502
20088SOL    HW261706   6.517   7.836   7.315 -0.1851 -0.6203  0.4654
20089SOL     OW61707   6.755   3.282   1.087  0.1627 -0.2896  0.0691
20089SOL    HW161708   6.699   3.336   1.032  2.0811  0.5374 -1.1628
20089SOL    HW261709   6.745   3.320   1.175  1.9654  2.6234 -0.8547
20090SOL     OW61710   5.138   6.473   5.125 -0.1753 -0.2467  0.1017
20090SOL    HW161711   5.142   6.394   5.178 -2.0721  0.1075  0.8566
20090SOL    HW261712   5.064   6.459   5.066 -1.2031  1.3279  0.9424
20091SOL     OW61713   2.589   7.510  12.040  0.0928 -0.2053  0.0464
20091SOL    HW161714   2.671   7.508  12.089  0.0991 -3.6337  0.1258
20091SOL    HW261715   2.549   7.425  12.056 -2.2885  0.4009 -2.0118
20092SOL     OW61716   7.321   7.879   4.361 -0.0627  0.5389  0.0208
20092SOL    HW161717   7.370   7.797   4.356 -1.3447 -0.3694  1.4453
20092SOL    HW261718   7.245   7.865   4.305 -0.0885  0.9053 -0.0369
20093SOL     OW61719   4.593   4.340   6.123 -0.1482 -0.0980  0.9335
20093SOL    HW161720   4.528   4.380   6.065  0.4588 -0.8026 -0.2757
20093SOL    HW261721   4.545   4.273   6.171 -0.7810  0.8642  1.6864
20094SOL     OW61722   4.538   5.842   7.613  0.4535  0.3590  0.0684
20094SOL    HW161723   4.451   5.819   7.580  0.7731 -0.6936 -0.0726
20094SOL    HW261724   4.537   5.938   7.617 -0.1793  0.4545 -1.4134
20095SOL     OW61725   3.548   2.375   0.066  0.2038  0.4714  0.0354
20095SOL    HW161726   3.467   2.392   0.113 -0.7798 -2.6741 -0.2829
20095SOL    HW261727   3.520   2.340  -0.019  1.9380  1.9681 -1.2317
20096SOL     OW61728   1.858   7.509  11.352 -0.6502 -0.2683  0.1324
20096SOL    HW161729   1.873   7.424  11.313 -0.5996 -0.2338  0.0776
20096SOL    HW261730   1.781   7.544  11.306  0.2856  0.4064 -0.9717
20097SOL     OW61731   6.598   1.818   2.341 -0.0339 -0.8074  0.2241
20097SOL    HW161732   6.510   1.851   2.361  0.4353 -0.4000  1.7753
20097SOL    HW261733   6.644   1.822   2.425  0.6617 -3.5308  0.0624
20098SOL     OW61734   6.387   1.137   5.541  0.6257  0.3292  0.0189
20098SOL    HW161735   6.438   1.057   5.532 -0.4745 -0.2789 -1.3122
20098SOL    HW261736   6.306   1.109   5.584  0.9162  1.0623  1.0840
20099SOL     OW61737   2.446   2.206   1.011 -0.1605  0.6307  0.1606
20099SOL    HW161738   2.442   2.293   0.971  1.1074  0.8860  0.5450
20099SOL    HW261739   2.430   2.222   1.104 -0.2595  0.4198  0.1784
20100SOL     OW61740   6.289   4.918  11.977 -0.2997 -0.1662 -0.4636
20100SOL    HW161741   6.220   4.938  11.912 -0.5846 -0.7392 -0.3432
20100SOL    HW261742   6.241   4.896  12.057 -0.1274 -3.1280 -1.0470
20101SOL     OW61743   0.847   3.978  10.607  0.4828  0.0408 -0.7690
20101SOL    HW161744   0.910   3.995  10.677  1.0807 -0.3353 -1.2033
20101SOL    HW261745   0.852   3.883  10.594 -0.8123 -0.1259 -0.2213
20102SOL     OW61746   2.410   5.488   1.668  0.4946 -0.4408  0.9094
20102SOL    HW161747   2.439   5.484   1.576 -0.9252 -1.0684  0.4605
20102SOL    HW261748   2.491   5.489   1.718  1.3125  0.3838 -0.3660
20103SOL     OW61749   7.469   4.451   0.969 -0.3221  0.4819  0.1003
20103SOL    HW161750   7.501   4.380   0.914 -1.2310  0.5637 -0.5487
20103SOL    HW261751   7.533   4.521   0.958 -0.2702  0.3396 -0.5134
20104SOL     OW61752   1.308   7.434  10.104  0.0985 -0.1474 -0.0361
20104SOL    HW161753   1.240   7.500  10.116  0.8118  0.8374 -1.1678
20104SOL    HW261754   1.274   7.376  10.036  0.4453  0.4519 -0.7338
20105SOL     OW61755   7.245   3.578  11.270 -0.2202 -0.3285 -0.1946
20105SOL    HW161756   7.277   3.489  11.286 -0.5017 -0.2076  1.2009
20105SOL    HW261757   7.149   3.570  11.269 -0.2746 -0.4988 -3.1748
20106SOL     OW61758   4.962   6.266   6.622 -0.0175  0.1387  0.1690
20106SOL    HW161759   4.879   6.224   6.647 -1.5845  1.0861 -2.8942
20106SOL    HW261760   4.936   6.353   6.592  1.7272 -0.1954 -2.6908
20107SOL     OW61761   4.418   7.316   2.335 -0.1111  0.0540  0.2801
20107SOL    HW161762   4.456   7.236   2.298  2.1489  0.8759  0.6532
20107SOL    HW261763   4.452   7.386   2.279  0.3787  0.9956  1.7084
20108SOL     OW61764   3.939   2.247   2.357 -0.0007  0.1487 -0.1875
20108SOL    HW161765   3.894   2.276   2.278 -4.2914  2.1160  2.5747
20108SOL    HW261766   3.936   2.323   2.415  1.3871 -1.6752  2.5016
20109SOL     OW61767   2.902   7.880  10.105 -0.3686 -0.5917 -0.2554
20109SOL    HW161768   2.928   7.844  10.190  1.5203  0.0078 -0.5298
20109SOL    HW261769   2.811   7.908  10.118 -0.1104 -0.4446  1.5822
20110SOL     OW61770   1.372   6.309   6.215  0.1420  0.0299 -0.3434
20110SOL    HW161771   1.277   6.304   6.224  0.1215  0.1689 -0.4832
20110SOL    HW261772   1.405   6.291   6.304 -0.0301  0.4522 -0.1913
20111SOL     OW61773   4.437   4.146   2.552  0.5498 -0.1508 -0.1573
20111SOL    HW161774   4.456   4.062   2.511  0.2900 -0.2492 -0.0728
20111SOL    HW261775   4.409   4.125   2.641  2.9237  0.1543  0.7460
20112SOL     OW61776   3.933   0.232   3.255 -0.5416  0.0232  0.9636
20112SOL    HW161777   3.844   0.208   3.282 -0.9660  1.0926  0.5890
20112SOL    HW261778   3.953   0.310   3.306 -1.1167  1.7229 -1.2177
20113SOL     OW61779   7.362   7.610   5.847 -0.1139  0.5602 -0.4226
20113SOL    HW161780   7.328   7.674   5.784 -2.2496 -0.1166 -0.0383
20113SOL    HW261781   7.349   7.651   5.932  1.1272  0.7356 -0.2967
20114SOL     OW61782   4.718   2.374   4.622  0.3644  0.0928 -0.0087
20114SOL    HW161783   4.627   2.376   4.653  0.0794 -1.1587 -0.6784
20114SOL    HW261784   4.729   2.285   4.588  0.9497  1.0898 -2.6473
20115SOL     OW61785   4.605   5.251   4.333  0.3282 -0.1440  0.2633
20115SOL    HW161786   4.604   5.346   4.331  1.4586 -0.1059  0.9394
20115SOL    HW261787   4.583   5.228   4.424 -0.2042 -0.5435  0.0439
20116SOL     OW61788   5.810   0.263   2.317  0.4336  0.4496 -0.8146
20116SOL    HW161789   5.722   0.296   2.301  0.3834  0.4408 -0.5683
20116SOL    HW261790   5.801   0.168   2.315 -0.2277  0.3387  2.4484
20117SOL     OW61791   0.182   0.981   8.830  0.2684  0.1213  0.2910
20117SOL    HW161792   0.232   0.958   8.909  0.6470 -0.2580 -0.0505
20117SOL    HW261793   0.112   0.915   8.827 -1.0658  1.4172  1.4727
20118SOL     OW61794   3.087   2.405  10.274 -0.2469  0.3473  0.5565
20118SOL    HW161795   3.180   2.383  10.278 -0.0414  0.5827 -1.7612
20118SOL    HW261796   3.085   2.492  10.234 -1.4642  0.3193  0.5300
20119SOL     OW61797   7.042   7.165   9.729  0.2168  0.5215  0.2110
20119SOL    HW161798   7.080   7.240   9.683 -0.2949  1.3969  1.1765
20119SOL    HW261799   6.948   7.175   9.717  0.1539 -0.0774  0.1876
20120SOL     OW61800   6.357   4.283   4.868  0.4224 -0.5653  0.1340
20120SOL    HW161801   6.343   4.259   4.960 -1.7239  0.7997  0.2210
20120SOL    HW261802   6.428   4.347   4.871 -0.7534  0.7675  1.1061
20121SOL     OW61803   6.541   0.640   9.626  0.8631  0.4556 -0.5053
20121SOL    HW161804   6.495   0.720   9.653 -1.1019 -0.8338  0.2666
20121SOL    HW261805   6.622   0.641   9.677  0.4926  1.5480  0.1191
20122SOL     OW61806   7.724   4.562  11.299 -0.4062  0.7349 -0.4914
20122SOL    HW161807   7.634   4.564  11.267 -0.5657  1.1138 -0.0294
20122SOL    HW261808   7.775   4.526  11.226 -1.1856 -1.2080 -0.1403
20123SOL     OW61809   6.423   3.243   5.627 -0.0746  0.1092 -0.3074
20123SOL    HW161810   6.334   3.264   5.658 -0.3747  0.1941 -1.2066
20123SOL    HW261811   6.444   3.313   5.566 -0.2596 -1.0396 -1.7461
20124SOL     OW61812   5.248   3.337   3.867 -0.4342 -0.0792  0.1952
20124SOL    HW161813   5.209   3.254   3.840 -0.1186 -0.8113  1.8286
20124SOL    HW261814   5.339   3.332   3.838 -0.7165  0.2334 -0.7722
20125SOL     OW61815   3.454   3.813   6.837  0.4851  0.1997  0.7723
20125SOL    HW161816   3.546   3.836   6.828  0.3218  0.3546 -0.6618
20125SOL    HW261817   3.449   3.723   6.805 -0.0539  0.6226 -0.3994
20126SOL     OW61818   3.160   4.449   3.152 -0.2017 -0.3132  0.8023
20126SOL    HW161819   3.107   4.460   3.231 -2.0056 -0.4196 -0.3414
20126SOL    HW261820   3.176   4.354   3.146  0.1589 -0.2777  1.1592
20127SOL     OW61821   2.751   1.696   3.625 -0.1494 -0.1247 -0.5905
20127SOL    HW161822   2.787   1.608   3.616 -0.7514 -0.2827 -1.7729
20127SOL    HW261823   2.760   1.718   3.718  1.7054 -0.6850 -0.6052
20128SOL     OW61824   2.305   0.188   4.017 -0.0240  0.1407  0.3208
20128SOL    HW161825   2.257   0.132   3.957  4.9431 -2.6916 -1.6199
20128SOL    HW261826   2.324   0.132   4.093  1.3431  0.6582  0.3827
20129SOL     OW61827   3.537   7.248  10.999 -0.2925  0.2486 -0.4635
20129SOL    HW161828   3.544   7.166  10.951 -0.4262 -0.3977  0.5907
20129SOL    HW261829   3.445   7.256  11.022 -0.5230  1.3441 -1.6249
20130SOL     OW61830   5.946   6.537   4.824  0.0569 -0.0581  0.1183
20130SOL    HW161831   5.967   6.571   4.912  2.7643 -0.5827 -0.2286
20130SOL    HW261832   6.013   6.471   4.807  0.2366  0.7175 -2.7399
20131SOL     OW61833   7.066   1.361   7.428 -0.3208 -0.0008 -0.0650
20131SOL    HW161834   7.119   1.365   7.507 -0.8683  1.5415  0.2563
20131SOL    HW261835   7.129   1.350   7.357  0.3462  0.6831  0.4087
20132SOL     OW61836   0.763   3.844   1.927 -0.8583 -0.1387  0.5240
20132SOL    HW161837   0.803   3.823   2.011 -1.6455 -1.0263  0.6924
20132SOL    HW261838   0.674   3.874   1.949 -1.5881 -1.7539 -0.0458
20133SOL     OW61839   6.132   3.273   9.205 -0.4583  0.0742 -0.2532
20133SOL    HW161840   6.156   3.291   9.296 -1.2084  0.3390 -0.0925
20133SOL    HW261841   6.156   3.182   9.191 -1.4121 -0.3272  0.5896
20134SOL     OW61842   5.871   3.367   7.050 -0.4026  0.0530  0.0023
20134SOL    HW161843   5.932   3.402   7.115  0.2582  0.1099 -0.6372
20134SOL    HW261844   5.785   3.397   7.080  0.0505  1.4773 -0.0296
20135SOL     OW61845   7.824   0.397   7.894  0.1198  0.1372  0.0233
20135SOL    HW161846   7.900   0.396   7.952  0.7116 -2.4626 -0.6408
20135SOL    HW261847   7.749   0.382   7.952  0.3237  0.7593  0.4581
20136SOL     OW61848   3.941   3.521   4.700  0.0974  0.3502  0.5431
20136SOL    HW161849   4.003   3.586   4.665 -0.5887  0.7547  0.0415
20136SOL    HW261850   3.946   3.530   4.795  2.6988 -1.4107  0.6713
20137SOL     OW61851   7.611   2.825   9.448  0.4753 -0.2932 -0.0490
20137SOL    HW161852   7.679   2.884   9.480  0.1438  0.3195 -0.4620
20137SOL    HW261853   7.640   2.800   9.360 -0.7919  1.5973 -1.0877
20138SOL     OW61854   6.494   3.763   6.840 -0.5001 -0.0632 -0.0995
20138SOL    HW161855   6.465   3.763   6.748 -0.1114  0.5202 -0.2241
20138SOL    HW261856   6.449   3.837   6.879  0.6057  0.6952 -0.2298
20139SOL     OW61857   6.208   4.145   7.643 -0.4004 -0.0597 -0.0794
20139SOL    HW161858   6.247   4.092   7.713  1.1361  0.5181 -0.4543
20139SOL    HW261859   6.197   4.232   7.682  0.9853  0.4185 -0.6650
20140SOL     OW61860   2.029   5.647   8.449  0.1281 -0.7264  0.4717
20140SOL    HW161861   1.942   5.668   8.417 -0.4036 -0.8313  1.7670
20140SOL    HW261862   2.040   5.554   8.428  1.0654 -0.1186 -2.1077
20141SOL     OW61863   3.769   5.478   5.070  0.3941  0.6307  0.0084
20141SOL    HW161864   3.855   5.510   5.042  0.7109  1.0382  1.3521
20141SOL    HW261865   3.782   5.452   5.161 -0.8469  0.4123  0.1394
20142SOL     OW61866   0.646   6.237  12.385 -0.2014  0.2003 -0.1464
20142SOL    HW161867   0.683   6.249  12.297 -0.0920  0.2121 -0.0983
20142SOL    HW261868   0.686   6.305  12.437  0.1008 -0.1078  0.0279
20143SOL     OW61869   6.038   2.106   5.174 -0.3161  0.0320 -0.5039
20143SOL    HW161870   6.032   2.149   5.259 -3.2321  0.8996 -1.0419
20143SOL    HW261871   6.132   2.108   5.153  0.2011  1.9557  1.5689
20144SOL     OW61872   3.582   0.479   3.405  0.0494 -0.5050  0.1935
20144SOL    HW161873   3.500   0.459   3.358  0.0495 -1.4557  0.5782
20144SOL    HW261874   3.608   0.396   3.444  1.2126 -0.2068  0.0764
20145SOL     OW61875   1.139   5.419   8.831  0.4353 -0.1963  0.0276
20145SOL    HW161876   1.234   5.413   8.822  0.6332  1.6604  0.4852
20145SOL    HW261877   1.123   5.411   8.925  0.3050  0.9548  0.1213
20146SOL     OW61878   1.079   1.027   0.364 -0.7064 -0.2519 -0.0368
20146SOL    HW161879   1.092   0.988   0.450 -2.7385 -0.3135  0.2897
20146SOL    HW261880   1.010   1.092   0.377 -1.7918 -0.9745 -1.7971
20147SOL     OW61881   5.821   2.388   2.494 -0.4188  0.0088  0.1500
20147SOL    HW161882   5.794   2.298   2.479  3.6656 -1.5510  1.0147
20147SOL    HW261883   5.799   2.405   2.586  0.5856 -0.8741  0.5691
20148SOL     OW61884   0.399   4.513   8.936  0.0695  0.2692  0.0337
20148SOL    HW161885   0.398   4.508   8.841  0.8213  0.2905  0.0199
20148SOL    HW261886   0.311   4.543   8.960  0.5787  2.6309 -0.7972
20149SOL     OW61887   2.939   7.590   8.626  0.0529 -0.3161 -0.7569
20149SOL    HW161888   2.929   7.525   8.696  0.0317 -0.3615 -0.8021
20149SOL    HW261889   2.928   7.540   8.546  0.5994 -0.3555 -0.8075
20150SOL     OW61890   4.665   7.034   2.267 -0.6208  0.0314  0.4553
20150SOL    HW161891   4.622   7.076   2.342  0.8927  1.4628  0.5777
20150SOL    HW261892   4.620   7.070   2.191  0.5924  1.8867  0.5638
20151SOL     OW61893   5.744   3.775  10.152  0.0434 -0.0702  0.1874
20151SOL    HW161894   5.687   3.702  10.173 -2.0353  0.9532 -1.4613
20151SOL    HW261895   5.709   3.848  10.203  0.8421  0.2331  0.3155
20152SOL     OW61896   2.379   0.295   0.159 -0.2698 -0.2013 -0.3091
20152SOL    HW161897   2.335   0.358   0.216 -0.2068 -1.5320  1.3133
20152SOL    HW261898   2.429   0.348   0.098  0.5162  1.3540  1.5758
20153SOL     OW61899   6.080   5.493  10.260 -0.0851 -0.0523 -0.1749
20153SOL    HW161900   5.996   5.539  10.262 -0.1129 -0.1214  0.3376
20153SOL    HW261901   6.144   5.558  10.289 -0.1551 -0.3886  0.7722
20154SOL     OW61902   0.591   2.971   8.356 -0.9004  0.1727 -0.1089
20154SOL    HW161903   0.601   2.908   8.285  1.0659  0.4836 -0.1547
20154SOL    HW261904   0.507   3.013   8.339 -1.8911 -1.8752 -0.5089
20155SOL     OW61905   3.427   6.939   6.480 -0.1401 -0.6108 -0.5729
20155SOL    HW161906   3.447   7.033   6.485  0.8074 -0.7626 -1.1895
20155SOL    HW261907   3.446   6.906   6.567 -2.0122  0.0257  0.1247
20156SOL     OW61908   6.322   0.742   3.362 -0.1694  0.1927  0.2591
20156SOL    HW161909   6.292   0.651   3.349 -1.6371  0.7340 -0.3825
20156SOL    HW261910   6.268   0.775   3.434  1.4244  0.1215  1.5377
20157SOL     OW61911   7.829   4.951   9.737 -0.7817  0.3639 -0.3851
20157SOL    HW161912   7.768   4.915   9.673 -1.4959  2.5368 -1.0229
20157SOL    HW261913   7.913   4.955   9.690 -0.6695 -0.4998 -0.2728
20158SOL     OW61914   0.467   7.229   7.806 -0.1702  0.5327  0.5429
20158SOL    HW161915   0.528   7.281   7.859  0.4560 -0.9315  1.3247
20158SOL    HW261916   0.410   7.187   7.870  0.7273 -1.4363  0.1473
20159SOL     OW61917   1.625   4.982   6.722 -0.3574 -0.8292 -0.2960
20159SOL    HW161918   1.547   5.036   6.713  0.2758  0.3133  0.6275
20159SOL    HW261919   1.650   4.992   6.814  0.1069 -2.2747 -0.2346
20160SOL     OW61920   3.904   0.070   4.469  0.4283  0.3325  0.0346
20160SOL    HW161921   3.828   0.052   4.413  0.6962 -1.7791  0.2430
20160SOL    HW261922   3.894   0.008   4.542  2.8121 -0.6582 -0.4050
20161SOL     OW61923   7.829   3.476   1.269  0.0326  0.7379 -0.2196
20161SOL    HW161924   7.847   3.519   1.352  2.6897 -0.4809 -0.0626
20161SOL    HW261925   7.890   3.515   1.207 -1.5433  1.2502 -1.5133
20162SOL     OW61926   1.639   2.362   5.753 -0.2195  0.1667 -0.0398
20162SOL    HW161927   1.613   2.350   5.844 -1.5157 -2.0433 -0.6219
20162SOL    HW261928   1.732   2.340   5.752 -0.0258  0.8813  0.8420
20163SOL     OW61929   7.257   2.204   0.071 -0.3021  0.1369  0.4257
20163SOL    HW161930   7.223   2.134   0.016 -1.1448  1.1694 -0.4369
20163SOL    HW261931   7.195   2.210   0.144 -0.5484  0.3317  0.2054
20164SOL     OW61932   3.052   4.940   6.888 -0.0765  0.0891 -0.1730
20164SOL    HW161933   3.092   5.024   6.866  3.2556 -1.1100  0.7074
20164SOL    HW261934   3.094   4.878   6.829 -0.4248 -1.3120  1.0018
20165SOL     OW61935   6.753   3.487   1.317 -0.1384  0.1314  0.0583
20165SOL    HW161936   6.752   3.571   1.362  1.3156  0.0886  0.2234
20165SOL    HW261937   6.712   3.504   1.232  0.6732  1.1647 -0.1507
20166SOL     OW61938   1.294   0.714   2.161  0.4958  0.3722  0.4549
20166SOL    HW161939   1.369   0.657   2.178  0.3209 -0.0307 -0.0922
20166SOL    HW261940   1.227   0.685   2.222 -0.0203 -0.8529 -0.6473
20167SOL     OW61941   7.127   7.102   0.492 -0.0055 -0.4327 -0.3632
20167SOL    HW161942   7.131   7.158   0.415 -1.5401 -0.5493 -0.5516
20167SOL    HW261943   7.193   7.138   0.552 -0.1874  0.8686 -0.9271
20168SOL     OW61944   3.690   3.328   3.169  0.0975 -0.2238  0.4605
20168SOL    HW161945   3.700   3.312   3.075  1.1103 -1.6401  0.7628
20168SOL    HW261946   3.775   3.361   3.197 -0.4423  0.9536  0.7584
20169SOL     OW61947   4.516   5.421   9.773  0.0811 -0.1908  0.0511
20169SOL    HW161948   4.491   5.330   9.755 -1.8997  0.5011 -1.0018
20169SOL    HW261949   4.559   5.451   9.693  0.8215 -0.2118  0.4326
20170SOL     OW61950   2.400   2.698   9.118  0.4517  0.0965 -0.2468
20170SOL    HW161951   2.443   2.716   9.034 -0.0222  1.0773 -0.3011
20170SOL    HW261952   2.470   2.666   9.175  0.7889 -0.5291 -0.9948
20171SOL     OW61953   7.420   2.636   8.319 -0.5759 -0.0581  0.1660
20171SOL    HW161954   7.373   2.560   8.351 -0.0356 -0.5698 -0.2423
20171SOL    HW261955   7.463   2.673   8.396 -0.3982 -0.4821  0.2713
20172SOL     OW61956   1.728   2.990   5.766  0.1879 -0.2893  0.5847
20172SOL    HW161957   1.774   2.909   5.787  2.1263  0.7474  0.6632
20172SOL    HW261958   1.689   2.975   5.680 -1.8810 -2.2115  1.7893
20173SOL     OW61959   7.878   0.554   0.358 -0.1284 -0.5183 -0.0953
20173SOL    HW161960   7.798   0.582   0.315  0.4044  1.5746  0.1984
20173SOL    HW261961   7.888   0.614   0.432  1.8302 -0.5736 -0.2642
20174SOL     OW61962   2.889   1.125   3.842  0.3986  0.1324 -0.1579
20174SOL    HW161963   2.949   1.096   3.773 -0.3321  0.8457 -1.1251
20174SOL    HW261964   2.873   1.047   3.894  0.5274 -0.5674 -1.1416
20175SOL     OW61965   5.968   6.512   2.394  0.2257  0.1600 -0.2459
20175SOL    HW161966   5.996   6.422   2.376 -0.0494 -0.1616  0.8614
20175SOL    HW261967   6.046   6.565   2.381  0.4044 -0.2449 -0.8447
20176SOL     OW61968   7.778   6.559  11.293  0.1876  0.4348 -0.0946
20176SOL    HW161969   7.801   6.616  11.367 -1.0781  0.7003  0.1252
20176SOL    HW261970   7.712   6.500  11.329 -0.1283  0.2829 -0.9046
20177SOL     OW61971   2.424   1.613   5.156  0.2835 -0.1921  0.1928
20177SOL    HW161972   2.409   1.580   5.245 -0.2165 -0.3384  0.0575
20177SOL    HW261973   2.337   1.620   5.118  0.5469 -1.0060 -0.5999
20178SOL     OW61974   7.571   0.194   6.769 -0.0968 -0.3154 -0.0639
20178SOL    HW161975   7.479   0.185   6.795 -0.6743  0.0780 -1.7784
20178SOL    HW261976   7.597   0.106   6.743 -0.4831 -0.1778 -0.9754
20179SOL     OW61977   7.240   1.205   4.093  0.1632 -0.0724 -0.4876
20179SOL    HW161978   7.172   1.184   4.029  0.5640  1.1424 -1.3424
20179SOL    HW261979   7.197   1.195   4.178 -1.2983  1.3185 -1.0140
20180SOL     OW61980   0.891   7.212   1.487  0.4565 -0.5151 -0.2844
20180SOL    HW161981   0.931   7.281   1.434  1.2104 -0.0424  0.8493
20180SOL    HW261982   0.934   7.131   1.458  0.0499 -0.4324 -1.1555
20181SOL     OW61983   7.622   0.698   5.049  0.5521  0.0567 -0.5119
20181SOL    HW161984   7.605   0.605   5.034  3.5271 -0.5447 -0.6847
20181SOL    HW261985   7.646   0.732   4.964  1.5259  0.4616 -0.0907
20182SOL     OW61986   7.094   2.082   1.405  0.1568 -0.2058 -0.1091
20182SOL    HW161987   7.059   2.025   1.474 -1.4939  2.4044  1.4113
20182SOL    HW261988   7.147   2.147   1.453 -0.5522  1.3308 -1.3364
20183SOL     OW61989   5.125   7.376   8.571  0.1659  0.6849  0.4087
20183SOL    HW161990   5.192   7.315   8.537  0.7093  1.1707  0.5865
20183SOL    HW261991   5.108   7.436   8.498 -1.6175 -0.6734 -0.3521
20184SOL     OW61992   7.563   2.141   3.308 -0.0383 -0.7089 -0.2552
20184SOL    HW161993   7.541   2.174   3.221  2.6174 -0.6657 -0.9935
20184SOL    HW261994   7.597   2.218   3.354 -0.1964 -1.0156  0.3821
20185SOL     OW61995   7.821   7.776   3.608 -0.2473  0.3632  0.3869
20185SOL    HW161996   7.828   7.804   3.517 -1.4336  0.8120  0.4146
20185SOL    HW261997   7.833   7.681   3.605  1.1149  0.5298 -0.0429
20186SOL     OW61998   0.423   7.586   4.816 -0.0616 -0.9256  0.4093
20186SOL    HW161999   0.430   7.521   4.886 -2.5326 -2.0128 -0.2465
20186SOL    HW262000   0.352   7.643   4.843  0.7213  0.2782 -0.0074
20187SOL     OW62001   0.509   2.726   7.286 -0.2510  0.5165  0.1545
20187SOL    HW162002   0.446   2.780   7.334  0.6915  1.4741  0.3528
20187SOL    HW262003   0.456   2.664   7.238 -1.2866  0.0850  1.7663
20188SOL     OW62004   0.768   2.468   6.833  0.4632  0.2402 -0.6374
20188SOL    HW162005   0.825   2.459   6.909 -0.9439 -2.2833  0.2560
20188SOL    HW262006   0.712   2.542   6.852  1.0440  0.4864  0.1357
20189SOL     OW62007   5.205   0.536   6.443 -0.2141 -0.3189 -0.2371
20189SOL    HW162008   5.262   0.555   6.369  0.7337 -1.8740  0.0335
20189SOL    HW262009   5.264   0.540   6.519  0.1084 -3.8645 -0.1293
20190SOL     OW62010   7.280   0.214   2.046 -0.0904 -0.3691 -0.3803
20190SOL    HW162011   7.290   0.290   1.989  1.4986 -1.5564 -1.7752
20190SOL    HW262012   7.185   0.207   2.061 -0.4853  0.4173 -2.2681
20191SOL     OW62013   5.670   7.637   6.722  0.3118 -0.1043 -0.2252
20191SOL    HW162014   5.689   7.552   6.762 -0.1717 -0.2312 -0.2561
20191SOL    HW262015   5.607   7.678   6.781 -1.3744 -0.8095 -1.4508
20192SOL     OW62016   1.079   7.931  10.959  0.0351 -0.2119 -0.3837
20192SOL    HW162017   1.169   7.909  10.985 -0.0583  0.4549  0.5397
20192SOL    HW262018   1.088   8.010  10.906  0.0320 -0.4140 -0.6883
20193SOL     OW62019   5.693   0.945   5.874 -0.0257 -0.8233 -0.2215
20193SOL    HW162020   5.598   0.943   5.863  0.0912 -0.1988 -1.6782
20193SOL    HW262021   5.712   0.878   5.939 -1.2868 -2.5036 -1.4863
20194SOL     OW62022   4.964   0.319   0.555 -0.2017  0.1347  0.6298
20194SOL    HW162023   4.877   0.352   0.531  0.2638  1.0021  0.1188
20194SOL    HW262024   4.948   0.227   0.580 -0.9375 -0.4232 -1.6424
20195SOL     OW62025   0.219   1.310   7.546 -0.0452  0.2072 -0.4527
20195SOL    HW162026   0.261   1.393   7.563 -0.8668  0.7867 -1.1419
20195SOL    HW262027   0.136   1.333   7.503 -0.6058 -0.9268 -0.0318
20196SOL     OW62028   2.978   2.801   5.509 -0.3628  0.2289 -0.0316
20196SOL    HW162029   2.889   2.773   5.527 -0.1421 -0.7307 -0.3837
20196SOL    HW262030   3.025   2.785   5.591 -0.0996 -1.0315 -0.4187
20197SOL     OW62031   0.767   0.613   5.049 -0.0695  0.2343  0.4300
20197SOL    HW162032   0.707   0.681   5.019 -1.7366  0.8039  4.4675
20197SOL    HW262033   0.846   0.661   5.077  0.8109 -0.1170 -1.3225
20198SOL     OW62034   5.239   6.501   4.654  0.1924 -0.1649  0.1160
20198SOL    HW162035   5.307   6.505   4.721  0.9417 -0.1542 -0.6328
20198SOL    HW262036   5.272   6.555   4.583 -1.0540  0.6565  0.1265
20199SOL     OW62037   3.626   4.327   2.843 -0.7424  0.0313  0.3880
20199SOL    HW162038   3.598   4.410   2.881 -0.4270 -0.0857  0.8853
20199SOL    HW262039   3.575   4.319   2.762  0.0217  1.2241 -0.2295
20200SOL     OW62040   2.514   2.797   2.764  0.4087  0.2285 -0.3917
20200SOL    HW162041   2.490   2.792   2.856  0.9117  0.4539 -0.2421
20200SOL    HW262042   2.439   2.837   2.721  0.4118  0.6737  0.0148
20201SOL     OW62043   1.721   4.454   4.463 -0.1120 -0.0476  0.2214
20201SOL    HW162044   1.749   4.372   4.505 -0.4195 -0.6779 -0.7681
20201SOL    HW262045   1.629   4.441   4.444  0.2122 -0.1433 -1.4279
20202SOL     OW62046   6.953   2.670  10.454 -0.3567  0.5743 -0.0043
20202SOL    HW162047   6.928   2.582  10.427 -0.4937  0.9415 -1.1764
20202SOL    HW262048   6.974   2.715  10.371  0.6199  1.3589  0.6451
20203SOL     OW62049   2.111   7.030   0.317 -0.6519  0.1345 -0.2092
20203SOL    HW162050   2.109   7.101   0.253 -3.9781  1.3979  1.0762
20203SOL    HW262051   2.080   7.070   0.398 -0.5429 -2.3181  1.1249
20204SOL     OW62052   0.092   4.752   2.600  0.3356  0.0384 -0.0176
20204SOL    HW162053   0.067   4.660   2.610 -0.9124  0.4287  0.8125
20204SOL    HW262054   0.187   4.753   2.609  0.4243 -1.2433 -0.6932
20205SOL     OW62055   7.776   4.217   9.113  0.1515 -0.0058  0.2443
20205SOL    HW162056   7.683   4.215   9.093 -0.0145 -2.3108  0.9471
20205SOL    HW262057   7.784   4.277   9.187 -1.0956 -1.1703  1.3842
20206SOL     OW62058   6.733   2.877  10.571 -0.5703  0.5682  0.6018
20206SOL    HW162059   6.722   2.945  10.637  0.2181  1.0645  0.2361
20206SOL    HW262060   6.820   2.893  10.535 -0.3138 -0.7159  0.6075
20207SOL     OW62061   2.255   2.811   6.233 -0.4055 -0.2340 -0.2081
20207SOL    HW162062   2.281   2.898   6.266 -0.0384  0.4619 -2.1727
20207SOL    HW262063   2.161   2.819   6.216  0.0901  0.7760 -2.9850
20208SOL     OW62064   2.721   6.455   2.447 -0.1928 -0.5154  0.0153
20208SOL    HW162065   2.785   6.480   2.380 -0.9735  1.2707 -0.1335
20208SOL    HW262066   2.638   6.491   2.416 -0.8218 -0.7581  1.3267
20209SOL     OW62067   4.660   7.586   0.866 -0.3957  0.1078 -0.0018
20209SOL    HW162068   4.715   7.529   0.812  2.1273  2.1562  0.2084
20209SOL    HW262069   4.718   7.616   0.936 -1.6834  2.5823  0.1235
20210SOL     OW62070   1.204   3.136   1.157 -0.2199  0.0574  0.5957
20210SOL    HW162071   1.274   3.194   1.185  2.2971 -2.0711 -0.8287
20210SOL    HW262072   1.153   3.188   1.095  0.8857  1.2616  0.6582
20211SOL     OW62073   4.597   5.085   3.200 -0.8129 -0.0840 -0.3578
20211SOL    HW162074   4.631   5.091   3.110 -3.3063  0.8428 -1.3273
20211SOL    HW262075   4.553   5.169   3.215  0.7313  0.3433  2.3124
20212SOL     OW62076   7.396   5.056   8.322 -0.3015 -0.4597  0.0350
20212SOL    HW162077   7.380   5.148   8.346  1.5668 -0.1367  0.1644
20212SOL    HW262078   7.310   5.015   8.328 -1.2637  1.3731 -0.4576
20213SOL     OW62079   5.414   5.111  10.906  0.2049  0.2193 -0.3999
20213SOL    HW162080   5.436   5.020  10.928  2.8204  0.3916 -1.9824
20213SOL    HW262081   5.373   5.145  10.986  0.0571 -2.0503  0.5677
20214SOL     OW62082   6.515   7.375  12.442  0.2696  0.4568 -0.0093
20214SOL    HW162083   6.547   7.457  12.479 -1.0440  0.2386  1.7303
20214SOL    HW262084   6.420   7.384  12.442  0.1300 -0.8431 -0.3069
20215SOL     OW62085   0.929   3.471   0.495 -0.0855  0.0713  0.5495
20215SOL    HW162086   0.955   3.492   0.405 -1.0211 -0.6872  0.0716
20215SOL    HW262087   0.993   3.406   0.524 -0.6725 -0.8755 -0.1718
20216SOL     OW62088   2.560   0.125   3.080 -0.0189 -0.0995 -0.5789
20216SOL    HW162089   2.631   0.168   3.127 -0.5309 -1.6771  1.8151
20216SOL    HW262090   2.481   0.172   3.109 -0.3717 -1.2969  0.4871
20217SOL     OW62091   6.173   7.475   2.555  0.3120 -0.0965  0.3188
20217SOL    HW162092   6.166   7.528   2.476 -1.3574  0.0294  0.5175
20217SOL    HW262093   6.206   7.390   2.524 -0.6224 -0.1538 -0.5720
20218SOL     OW62094   4.571   0.205   8.280 -0.1390 -0.4072  0.4922
20218SOL    HW162095   4.628   0.192   8.356 -0.9957 -1.9864  0.8918
20218SOL    HW262096   4.562   0.118   8.241  0.2720  0.3633 -1.4390
20219SOL     OW62097   3.872   6.493  10.078  0.6548  0.1977 -0.5362
20219SOL    HW162098   3.946   6.433  10.084  0.8903  0.3616 -1.6717
20219SOL    HW262099   3.801   6.449  10.124  1.6143  0.3174  1.1484
20220SOL     OW62100   1.049   4.926   5.569 -0.1409 -0.2703  0.2580
20220SOL    HW162101   0.972   4.873   5.552  0.2475 -0.8423  0.2515
20220SOL    HW262102   1.113   4.897   5.504 -0.3427  1.1157 -0.6124
20221SOL     OW62103   1.810   0.121   2.304  0.2357  1.1057 -0.0495
20221SOL    HW162104   1.872   0.073   2.360  0.1946 -0.4614 -1.2756
20221SOL    HW262105   1.834   0.096   2.215  1.0154  4.4252 -0.9066
20222SOL     OW62106   0.092   4.036   9.827 -0.5682 -0.5830  0.4472
20222SOL    HW162107   0.129   3.950   9.808 -1.5715 -0.9413  0.0310
20222SOL    HW262108   0.150   4.098   9.782  0.9495 -0.9076  1.8626
20223SOL     OW62109   2.400   7.228   3.621 -0.6404 -0.5268  0.2752
20223SOL    HW162110   2.381   7.146   3.666 -1.6653  0.4642  1.7303
20223SOL    HW262111   2.463   7.273   3.677  0.0678 -0.3778 -0.6097
20224SOL     OW62112   1.236   1.658   0.372  0.1490 -0.6155 -0.1620
20224SOL    HW162113   1.201   1.573   0.400  2.3869 -1.2370  1.0325
20224SOL    HW262114   1.189   1.678   0.291 -1.4035 -2.3233  0.2425
20225SOL     OW62115   5.529   4.026   6.087  0.4814  0.0329 -0.3201
20225SOL    HW162116   5.598   4.038   6.152  1.0020  0.0278 -0.8677
20225SOL    HW262117   5.544   3.937   6.053  0.0515 -0.0641 -0.2688
20226SOL     OW62118   6.436   2.857   6.301 -0.1961  0.1918 -0.2274
20226SOL    HW162119   6.361   2.913   6.283 -0.0156  0.0274 -1.5566
20226SOL    HW262120   6.501   2.916   6.340 -1.2812  0.1717  1.7296
20227SOL     OW62121   6.993   1.617   0.027  0.7029  0.6107 -0.4894
20227SOL    HW162122   7.056   1.675   0.069  1.3501 -0.0050 -0.5812
20227SOL    HW262123   6.983   1.544   0.089 -0.9558  1.3300  0.1429
20228SOL     OW62124   6.114   3.907   5.087  0.0543  0.2780  0.0571
20228SOL    HW162125   6.144   3.819   5.063 -0.3409  0.3995 -0.8924
20228SOL    HW262126   6.031   3.892   5.133  1.1856 -0.0122  2.1499
20229SOL     OW62127   2.969   2.313   2.166 -0.1345 -0.3425 -0.3331
20229SOL    HW162128   3.017   2.395   2.154 -0.9652 -0.1810 -3.5663
20229SOL    HW262129   2.896   2.335   2.224  0.1057  1.0008 -0.5133
20230SOL     OW62130   6.671   0.617  10.482  0.3211  0.2310 -0.5893
20230SOL    HW162131   6.623   0.571  10.552 -0.1194 -0.7623 -1.5202
20230SOL    HW262132   6.684   0.705  10.517 -1.6609  0.3680 -0.0312
20231SOL     OW62133   2.669   5.913   1.398 -0.1211  0.7098  0.2265
20231SOL    HW162134   2.668   5.985   1.335  1.8712  0.0036 -0.7132
20231SOL    HW262135   2.684   5.955   1.483  0.3372  1.4576 -0.2152
20232SOL     OW62136   7.584   6.030   2.711  0.0311  0.5158  0.4530
20232SOL    HW162137   7.648   6.050   2.780 -0.4372  2.7546  0.3096
20232SOL    HW262138   7.501   6.022   2.758 -0.0406  0.4781  0.3170
20233SOL     OW62139   3.848   1.469   1.575 -0.0850 -0.2920  0.0576
20233SOL    HW162140   3.890   1.448   1.492 -0.2765 -0.4811  0.0072
20233SOL    HW262141   3.847   1.565   1.578 -0.6938 -0.2742 -0.4751
20234SOL     OW62142   0.002   5.011   6.433 -0.4424  0.3784  0.2128
20234SOL    HW162143   0.033   5.047   6.350 -2.0306 -0.4609 -0.8120
20234SOL    HW262144  -0.032   5.086   6.481  0.9572  0.9493  0.3579
20235SOL     OW62145   0.425   2.070   7.205  0.0493  0.4094 -0.0813
20235SOL    HW162146   0.460   2.082   7.293  0.9236  1.4871 -0.5586
20235SOL    HW262147   0.463   2.141   7.154 -1.9221  0.9338 -0.9111
20236SOL     OW62148   3.606   6.996   1.677 -0.3762  0.1736  0.4769
20236SOL    HW162149   3.584   6.939   1.604  0.4057  0.5700 -0.0810
20236SOL    HW262150   3.565   7.080   1.655 -1.1847 -0.0537  1.0988
20237SOL     OW62151   3.898   6.996   8.488  0.6238  0.1490 -0.5011
20237SOL    HW162152   3.815   6.993   8.536 -0.4773  0.0644 -2.3362
20237SOL    HW262153   3.955   6.935   8.535 -0.3554  0.1594  0.7559
20238SOL     OW62154   7.347   1.168   2.942  0.0397  0.1267  0.5267
20238SOL    HW162155   7.302   1.157   3.025 -1.5357 -2.1543 -0.5196
20238SOL    HW262156   7.285   1.136   2.877  1.8067  0.3967 -1.3877
20239SOL     OW62157   7.397   5.073   6.009 -0.5416 -0.5410 -0.5400
20239SOL    HW162158   7.460   5.085   5.939  0.5982 -1.3173  0.3179
20239SOL    HW262159   7.417   5.142   6.072 -0.7439 -0.6092 -0.3984
20240SOL     OW62160   4.668   0.106   9.247  0.1188  0.5107 -0.4422
20240SOL    HW162161   4.681   0.180   9.188  2.0375  0.7290  0.1895
20240SOL    HW262162   4.754   0.063   9.250 -0.0774  0.1677  1.7090
20241SOL     OW62163   6.657   6.916   4.930 -0.0504 -0.1606 -0.4559
20241SOL    HW162164   6.727   6.850   4.930  0.4396  0.3469 -1.5059
20241SOL    HW262165   6.703   7.000   4.933 -0.6784  0.2091  2.7671
20242SOL     OW62166   0.528   2.163   7.897 -0.4153  0.1719  0.3702
20242SOL    HW162167   0.531   2.069   7.913 -3.0286 -0.1539 -0.5934
20242SOL    HW262168   0.437   2.181   7.876  0.5455  2.3815 -2.6364
20243SOL     OW62169   0.959   7.571   2.869 -0.6494 -0.2214 -0.3850
20243SOL    HW162170   0.903   7.539   2.939  0.2662  0.7208  0.8239
20243SOL    HW262171   0.904   7.631   2.819 -0.7885  0.5380  0.6598
20244SOL     OW62172   4.689   6.719   2.422 -0.1225  0.4972 -0.1044
20244SOL    HW162173   4.604   6.759   2.403  0.5415  1.8591 -0.3645
20244SOL    HW262174   4.716   6.759   2.505  0.1171 -0.1680  0.1394
20245SOL     OW62175   4.503   6.080  10.902  0.0175  0.8966 -0.1876
20245SOL    HW162176   4.533   6.007  10.847  0.2051  0.8146  0.0239
20245SOL    HW262177   4.571   6.089  10.969  0.7910  2.2585 -1.0963
20246SOL     OW62178   1.493   5.564   2.878  0.2450 -0.1351 -0.1221
20246SOL    HW162179   1.494   5.471   2.899  1.0660  0.3599  2.4143
20246SOL    HW262180   1.583   5.583   2.849  0.1739 -0.0597 -0.2953
20247SOL     OW62181   3.474   2.657   7.085  0.1957 -0.1333  0.4451
20247SOL    HW162182   3.481   2.722   7.155 -1.0084  1.2911 -0.6618
20247SOL    HW262183   3.408   2.595   7.116 -0.7842  0.8335  0.3584
20248SOL     OW62184   4.864   3.869   2.241 -0.4946 -0.0094  0.0738
20248SOL    HW162185   4.823   3.919   2.312  1.3027  0.2817  0.9524
20248SOL    HW262186   4.904   3.794   2.285  0.9942  0.3903 -0.5705
20249SOL     OW62187   6.359   3.196   2.741 -0.4074 -0.7713 -0.4137
20249SOL    HW162188   6.294   3.230   2.679 -0.9905 -0.5124  0.3340
20249SOL    HW262189   6.444   3.219   2.701 -0.7533  1.9572  0.2488
20250SOL     OW62190   6.096   1.610   0.423  0.1977  0.2076 -0.6690
20250SOL    HW162191   6.131   1.584   0.338 -0.1797  0.8561 -1.0309
20250SOL    HW262192   6.003   1.591   0.418  0.4355 -1.2815  0.2053
20251SOL     OW62193   6.549   0.069   9.603  0.0457 -0.6210  0.2876
20251SOL    HW162194   6.548   0.050   9.697 -2.6540 -0.7350  0.3156
20251SOL    HW262195   6.599   0.150   9.595 -0.0047 -0.4065  1.8819
20252SOL     OW62196   3.009   7.889   7.176 -0.0651  0.0858  0.3343
20252SOL    HW162197   2.918   7.877   7.204  0.9346 -1.1474  3.4501
20252SOL    HW262198   3.033   7.805   7.137 -0.6928  0.9907 -2.2073
20253SOL     OW62199   2.348   6.361   4.126 -0.7069 -0.1103 -0.1988
20253SOL    HW162200   2.360   6.374   4.032 -1.3577 -0.3938 -0.3263
20253SOL    HW262201   2.420   6.409   4.167 -0.7107  0.4348 -0.8229
20254SOL     OW62202   2.020   6.821   3.658  0.9186 -0.4576 -0.2467
20254SOL    HW162203   2.006   6.828   3.752  2.5928 -0.5718  0.0507
20254SOL    HW262204   1.938   6.850   3.619  0.6025  0.7765  1.2344
20255SOL     OW62205   4.871   0.275   2.611  0.5128  0.2321  0.0965
20255SOL    HW162206   4.904   0.219   2.541  0.4770  0.3787 -0.0369
20255SOL    HW262207   4.846   0.357   2.568 -0.3453  0.0060  0.1474
20256SOL     OW62208   4.986   7.402   4.262  0.2340  0.5081  0.4075
20256SOL    HW162209   5.027   7.486   4.286 -0.1517  0.5303  1.0133
20256SOL    HW262210   4.986   7.352   4.344  1.9828 -0.7434 -0.2857
20257SOL     OW62211   6.371   6.901   0.770  0.1126 -0.0927 -0.1918
20257SOL    HW162212   6.437   6.924   0.705  0.1599 -1.3841 -0.6303
20257SOL    HW262213   6.412   6.833   0.823  0.1963  1.1729  1.4359
20258SOL     OW62214   5.961   4.302   0.405 -0.3218  0.6497 -0.0456
20258SOL    HW162215   6.025   4.304   0.476  0.2859  0.7867 -0.5953
20258SOL    HW262216   5.911   4.222   0.419  0.8003 -0.1154 -0.3462
20259SOL     OW62217   6.900   3.701  10.642  0.0791 -0.5603 -0.5323
20259SOL    HW162218   6.823   3.747  10.676 -0.4413 -2.2123  0.6822
20259SOL    HW262219   6.873   3.669  10.556 -0.1455 -0.0407 -0.6573
20260SOL     OW62220   7.009   6.379   8.641 -0.2250 -0.5031  0.3195
20260SOL    HW162221   6.915   6.391   8.656 -0.2021 -1.6499  1.5328
20260SOL    HW262222   7.051   6.441   8.700 -0.1540  1.9518 -2.0706
20261SOL     OW62223   6.326   6.097   6.276 -0.2404  0.0023  0.0671
20261SOL    HW162224   6.276   6.162   6.227  1.6043  1.5672  0.1226
20261SOL    HW262225   6.280   6.090   6.360 -0.0245  1.9405  0.3982
20262SOL     OW62226   0.134   5.471  11.028 -0.0158  0.1749 -0.0415
20262SOL    HW162227   0.151   5.565  11.022 -0.5333  0.2014 -1.2780
20262SOL    HW262228   0.045   5.465  11.061  0.5941  0.0697  1.7335
20263SOL     OW62229   0.785   2.715   7.994 -0.3203  0.7025  0.3277
20263SOL    HW162230   0.839   2.749   7.923 -0.7733  2.0481  0.5958
20263SOL    HW262231   0.736   2.643   7.954  2.6219 -1.5502  0.4212
20264SOL     OW62232   5.350   6.739   5.698  0.6476  0.1881  0.3999
20264SOL    HW162233   5.382   6.714   5.611 -1.2643 -1.4153  0.0893
20264SOL    HW262234   5.425   6.783   5.739  1.6272  0.9695 -2.0109
20265SOL     OW62235   3.867   2.371   1.714 -0.3582  0.2366  0.1189
20265SOL    HW162236   3.785   2.343   1.754 -1.1176 -0.5722 -1.9140
20265SOL    HW262237   3.923   2.294   1.717 -0.0653  0.4603  0.4890
20266SOL     OW62238   5.662   1.454   0.870  0.2886 -0.1789 -0.2396
20266SOL    HW162239   5.575   1.464   0.908  0.3143 -1.5130  0.2385
20266SOL    HW262240   5.647   1.435   0.778  0.1757  1.7230 -0.6502
20267SOL     OW62241   3.835   2.612   2.942  0.0810  0.6241  0.4508
20267SOL    HW162242   3.764   2.610   3.007 -0.7221  1.8533 -0.3487
20267SOL    HW262243   3.889   2.687   2.969  1.0177 -0.1991  0.9533
20268SOL     OW62244   7.129   3.908  10.356 -0.5607  0.0061 -0.1286
20268SOL    HW162245   7.134   3.828  10.305 -0.4645 -0.4267  0.5546
20268SOL    HW262246   7.096   3.881  10.442  0.9597  0.4513  0.6222
20269SOL     OW62247   7.113   2.795   9.866  0.7333  0.1097  0.9410
20269SOL    HW162248   7.057   2.722   9.891 -1.1753  1.4888  0.9699
20269SOL    HW262249   7.073   2.871   9.908  2.3255  1.2764  0.4785
20270SOL     OW62250   2.934   1.910   2.988 -0.0609  0.1973 -0.7019
20270SOL    HW162251   2.985   1.946   3.060 -0.1793  1.3842 -1.1960
20270SOL    HW262252   2.848   1.950   2.997 -0.4938 -0.6974 -0.7157
20271SOL     OW62253   0.978   5.400   3.343  0.1881  0.2829  0.2592
20271SOL    HW162254   0.929   5.472   3.383  1.2725  0.4374  1.3378
20271SOL    HW262255   1.066   5.435   3.331 -0.0121  0.1483 -2.0435
20272SOL     OW62256   6.078   5.524   8.218  0.4231 -0.6460  0.1489
20272SOL    HW162257   6.026   5.499   8.142  0.0928 -1.6578  0.6900
20272SOL    HW262258   6.166   5.541   8.183  0.3055 -1.2376 -0.4437
20273SOL     OW62259   6.283   4.694   4.936  0.4450 -0.4131  0.1675
20273SOL    HW162260   6.214   4.683   4.870  0.0255  0.7098  0.3888
20273SOL    HW262261   6.236   4.710   5.017  0.8570  2.9810 -0.1175
20274SOL     OW62262   0.206   3.763   6.647 -0.9979  0.2724 -0.2694
20274SOL    HW162263   0.165   3.702   6.708  0.1833 -0.4287 -0.1401
20274SOL    HW262264   0.210   3.716   6.564 -1.3154  0.6965 -0.5311
20275SOL     OW62265   5.071   1.405   2.511 -0.4991  0.3508 -0.8126
20275SOL    HW162266   5.058   1.370   2.599  0.6721 -1.4560 -1.3117
20275SOL    HW262267   5.166   1.408   2.500 -0.6160  1.3167 -1.7551
20276SOL     OW62268   3.406   0.440   4.798 -0.2189 -0.5051 -0.7232
20276SOL    HW162269   3.469   0.379   4.836  1.5422  1.4876 -0.2230
20276SOL    HW262270   3.448   0.471   4.717  2.4160  4.9588  2.1451
20277SOL     OW62271   1.474   1.755  11.534 -0.4766  0.0355 -0.2404
20277SOL    HW162272   1.567   1.768  11.551 -0.2446 -1.8508  0.1614
20277SOL    HW262273   1.452   1.674  11.581 -2.0372 -0.2108 -1.3063
20278SOL     OW62274   4.122   4.104  11.293 -0.2436 -0.2577  0.7111
20278SOL    HW162275   4.084   4.045  11.229  0.8741  0.1638 -0.3852
20278SOL    HW262276   4.048   4.158  11.323 -0.6590  0.1209 -0.8830
20279SOL     OW62277   6.340   7.340   1.406  0.2466  0.9298  0.0313
20279SOL    HW162278   6.294   7.318   1.325 -1.9503 -0.5295  1.5571
20279SOL    HW262279   6.401   7.268   1.420 -2.9734 -1.6753  2.1290
20280SOL     OW62280   4.992   5.121   4.212 -0.2964 -0.1690 -0.4374
20280SOL    HW162281   5.071   5.116   4.157 -0.0045 -0.5723  0.0142
20280SOL    HW262282   5.026   5.128   4.301 -0.7419 -2.6517 -0.0121
20281SOL     OW62283   1.384   1.509   4.225 -0.1124 -0.3207  0.2883
20281SOL    HW162284   1.401   1.417   4.202  0.3239 -0.1025 -0.2816
20281SOL    HW262285   1.429   1.559   4.157  2.4363  0.4006  2.3384
20282SOL     OW62286   4.017   4.702  12.063 -0.0300  0.1448  0.1674
20282SOL    HW162287   3.939   4.648  12.076 -0.3549  0.4658 -0.3865
20282SOL    HW262288   4.083   4.642  12.027 -0.6261  0.2472 -1.1706
20283SOL     OW62289   0.173   0.315   2.527 -0.0309  0.7298  0.5769
20283SOL    HW162290   0.151   0.222   2.534  1.9971  0.1858  0.2684
20283SOL    HW262291   0.218   0.336   2.608 -0.2081  1.3691  0.5168
20284SOL     OW62292   5.610   7.792   5.631  0.0801  0.0932 -0.0876
20284SOL    HW162293   5.531   7.757   5.673 -0.5166  0.5037 -0.8545
20284SOL    HW262294   5.668   7.716   5.623  0.3097  0.0470  1.6794
20285SOL     OW62295   6.473   5.175   8.149  0.0165  0.1303  0.0856
20285SOL    HW162296   6.516   5.208   8.228  1.7151 -0.3099 -0.5943
20285SOL    HW262297   6.457   5.253   8.096  1.9478  0.1693 -0.5369
20286SOL     OW62298   6.146   5.099   5.733  0.5438 -0.1324  0.2628
20286SOL    HW162299   6.213   5.161   5.704 -1.4491  3.0365  1.8449
20286SOL    HW262300   6.167   5.083   5.825 -0.7512  0.8708  0.7656
20287SOL     OW62301   0.399   0.474   5.617  0.3571  0.0919 -0.1055
20287SOL    HW162302   0.415   0.400   5.675  1.4190  0.5314  0.1748
20287SOL    HW262303   0.322   0.448   5.566  0.0062 -0.6988  0.8140
20288SOL     OW62304   4.360   1.709   8.566  0.9989 -0.2092 -0.1295
20288SOL    HW162305   4.455   1.714   8.559  1.1792 -1.4897  1.1047
20288SOL    HW262306   4.328   1.735   8.479  2.3913  1.5877 -0.1645
20289SOL     OW62307   2.836   1.742   0.638 -0.4424  0.1953 -0.2885
20289SOL    HW162308   2.841   1.838   0.633  0.8391  0.1015 -1.2788
20289SOL    HW262309   2.921   1.715   0.670 -0.5252 -0.6536 -0.7673
20290SOL     OW62310   5.209   0.630   0.126  0.4841  0.0166 -0.4115
20290SOL    HW162311   5.272   0.653   0.058  1.9087 -0.5931  0.6364
20290SOL    HW262312   5.199   0.710   0.178  0.2846  0.1540 -0.6604
20291SOL     OW62313   0.080   4.981   0.304 -0.0774  0.3480 -0.0984
20291SOL    HW162314   0.005   4.938   0.346 -0.3228  0.0284 -0.8424
20291SOL    HW262315   0.064   4.969   0.210  0.4045  1.1397 -0.2864
20292SOL     OW62316   1.861   3.572   5.413  0.3280 -0.0764  0.0308
20292SOL    HW162317   1.766   3.571   5.414  0.3219  0.7295  0.6681
20292SOL    HW262318   1.884   3.528   5.330 -0.5558 -1.2897  0.3969
20293SOL     OW62319   0.030   3.561  10.163 -0.3545 -0.2240  0.6711
20293SOL    HW162320   0.005   3.472  10.190 -0.2493 -0.1461  1.0287
20293SOL    HW262321   0.116   3.575  10.202 -0.4732  0.1244  0.8136
20294SOL     OW62322   5.976   0.261   0.528 -0.0630 -0.1305  0.0825
20294SOL    HW162323   5.926   0.320   0.583 -0.3512 -0.1927 -0.1140
20294SOL    HW262324   5.912   0.198   0.495 -0.0572  0.4126 -1.0139
20295SOL     OW62325   6.241   7.812  11.102  0.0225 -0.6486  0.1223
20295SOL    HW162326   6.285   7.771  11.028 -0.3665 -1.7148  0.4594
20295SOL    HW262327   6.204   7.892  11.067  2.9991  0.8217  0.0089
20296SOL     OW62328   2.899   3.978   3.796  0.0823  0.0493 -0.0651
20296SOL    HW162329   2.804   3.969   3.794  0.0461  0.5900 -0.9776
20296SOL    HW262330   2.926   3.924   3.871 -1.1224  1.6809  1.6535
20297SOL     OW62331   3.042   7.291   5.483  0.1025  0.7706 -0.1900
20297SOL    HW162332   2.997   7.368   5.448 -1.8745 -0.2227 -0.0090
20297SOL    HW262333   3.112   7.273   5.420 -0.8056  1.4212 -1.4378
20298SOL     OW62334   4.519   6.517   8.151 -0.1340 -0.3406  0.0615
20298SOL    HW162335   4.435   6.476   8.130 -0.1118  0.6176 -2.2726
20298SOL    HW262336   4.581   6.476   8.090  0.6695  0.4032  0.3656
20299SOL     OW62337   0.100   1.402   1.496 -0.6737  0.7576  0.0397
20299SOL    HW162338   0.054   1.485   1.484 -1.3081  0.3061 -0.7876
20299SOL    HW262339   0.132   1.405   1.586 -0.3296  2.0669 -0.1147
20300SOL     OW62340   1.288   6.689   9.655  0.0258 -0.1247  0.2786
20300SOL    HW162341   1.285   6.724   9.566 -3.0948  0.2080  0.4080
20300SOL    HW262342   1.342   6.751   9.704  2.1534 -0.5388 -1.3963
20301SOL     OW62343   6.880   6.648   1.257  0.1370 -0.6315 -0.0702
20301SOL    HW162344   6.871   6.566   1.209  0.5353 -0.2185 -0.8735
20301SOL    HW262345   6.861   6.625   1.348  1.4201 -1.8628 -0.0742
20302SOL     OW62346   7.831   5.181   5.419  0.2311 -0.1609 -0.0247
20302SOL    HW162347   7.898   5.208   5.482 -1.1040  1.6871  0.6765
20302SOL    HW262348   7.751   5.173   5.471 -0.9445  1.5987 -1.4773
20303SOL     OW62349   2.560   4.078   1.082 -0.6232  0.0481 -0.3676
20303SOL    HW162350   2.580   4.036   1.165 -1.1594 -1.1741 -0.8274
20303SOL    HW262351   2.515   4.160   1.106 -1.8828 -0.8759  0.5391
20304SOL     OW62352   7.074   5.000   6.310  0.0904 -0.0927  0.1864
20304SOL    HW162353   6.979   4.993   6.322 -0.0658  0.1457 -0.8119
20304SOL    HW262354   7.085   5.028   6.219  1.1467 -0.7688  0.0820
20305SOL     OW62355   1.795   5.463   7.909  0.0289  0.2367  0.5337
20305SOL    HW162356   1.720   5.516   7.884 -1.0814 -1.5217  0.0101
20305SOL    HW262357   1.762   5.405   7.978 -0.2354 -3.0925 -2.1486
20306SOL     OW62358   4.401   7.683   9.286 -0.1808  0.1223  0.2101
20306SOL    HW162359   4.482   7.634   9.298 -0.6988 -1.8543 -3.0390
20306SOL    HW262360   4.342   7.651   9.355  0.7271 -0.9834  0.4976
20307SOL     OW62361   2.652   0.442   9.828 -0.5835  0.1640  0.0581
20307SOL    HW162362   2.665   0.537   9.821 -1.3612  0.2985  0.2498
20307SOL    HW262363   2.675   0.422   9.919  2.0082 -0.2765 -0.6174
20308SOL     OW62364   7.951   1.663   0.857 -0.0049 -0.0721 -0.2873
20308SOL    HW162365   7.993   1.696   0.778 -0.8252  2.3551  0.1801
20308SOL    HW262366   7.935   1.742   0.910 -1.8801 -1.2799  1.0929
20309SOL     OW62367   3.969   0.415   0.017  0.1661  0.1049  0.3480
20309SOL    HW162368   3.929   0.392   0.101 -0.6016 -0.4556 -0.1633
20309SOL    HW262369   3.917   0.369  -0.048 -0.3468  1.9398 -0.5875
20310SOL     OW62370   5.361   3.283   4.887 -0.5985 -0.1645 -0.2830
20310SOL    HW162371   5.312   3.346   4.940 -0.3420 -0.9506  0.9354
20310SOL    HW262372   5.435   3.334   4.854 -0.4065  0.2130  0.6669
20311SOL     OW62373   2.356   6.097   9.926  0.2408  0.2197  0.1125
20311SOL    HW162374   2.348   6.020   9.982  0.7431 -1.0783 -1.5192
20311SOL    HW262375   2.448   6.120   9.929  0.4020 -0.2773 -0.6771
20312SOL     OW62376   1.557   4.313   6.428  0.1844 -0.1881  0.1242
20312SOL    HW162377   1.558   4.238   6.368 -1.4306  0.6824 -1.0440
20312SOL    HW262378   1.532   4.387   6.373  0.5907  1.0060  1.5032
20313SOL     OW62379   1.643   1.121  11.596  0.0306  0.4007 -0.3978
20313SOL    HW162380   1.730   1.123  11.637 -0.3041 -1.3276  0.4546
20313SOL    HW262381   1.655   1.066  11.519 -0.3882 -0.1747 -0.0566
20314SOL     OW62382   1.815   5.959   9.621  0.1102 -0.0290 -0.6500
20314SOL    HW162383   1.737   5.998   9.581 -1.0076  1.6815  2.8148
20314SOL    HW262384   1.785   5.876   9.657 -0.6419  1.1759  1.7769
20315SOL     OW62385   2.235   2.580   8.590 -0.4262  0.2873  0.0470
20315SOL    HW162386   2.208   2.493   8.617  0.6185 -0.0513  0.0514
20315SOL    HW262387   2.326   2.587   8.619 -1.2193  2.3553  2.4021
20316SOL     OW62388   1.655   7.382   6.153  0.6573 -0.1878 -1.1264
20316SOL    HW162389   1.570   7.413   6.121  0.2936 -1.5158 -1.5074
20316SOL    HW262390   1.692   7.457   6.199 -0.9444  0.2660 -0.5118
20317SOL     OW62391   0.298   0.834   9.776  0.0411 -0.2862  0.4357
20317SOL    HW162392   0.317   0.813   9.685 -1.2287 -0.4166  0.1879
20317SOL    HW262393   0.347   0.915   9.792 -0.9657  0.6170 -0.8488
20318SOL     OW62394   0.874   5.705   8.919 -0.1779  0.2297  0.3409
20318SOL    HW162395   0.838   5.666   8.840 -0.2259  0.1474  0.4029
20318SOL    HW262396   0.848   5.645   8.989 -0.8386  0.7244  0.5307
20319SOL     OW62397   2.056   2.003   2.194  0.0841 -1.0393 -0.2010
20319SOL    HW162398   2.143   2.031   2.167  0.1731 -1.9019 -0.8434
20319SOL    HW262399   2.015   2.082   2.230  0.9974 -0.5500 -0.2146
20320SOL     OW62400   6.960   4.614   9.339  0.5451  0.1441 -0.2202
20320SOL    HW162401   6.893   4.571   9.286  0.5354 -0.8423  0.5573
20320SOL    HW262402   6.927   4.608   9.429  1.1507  0.6491  0.0436
20321SOL     OW62403   2.646   2.198   2.727 -0.7933  0.5874 -0.3744
20321SOL    HW162404   2.556   2.209   2.697 -0.2248  1.3141 -1.9367
20321SOL    HW262405   2.693   2.162   2.652  0.0560 -0.6793  0.7083
20322SOL     OW62406   6.765   1.166  10.484  0.4915 -0.0389  0.7549
20322SOL    HW162407   6.685   1.113  10.481  0.2994  0.2746  0.2902
20322SOL    HW262408   6.735   1.255  10.465  1.1941 -0.1919 -1.2246
20323SOL     OW62409   2.342   3.335  12.183 -0.6919  0.3734 -0.2187
20323SOL    HW162410   2.328   3.374  12.269  0.7936  1.5671 -0.4546
20323SOL    HW262411   2.428   3.293  12.190  0.1153  1.7308 -1.4943
20324SOL     OW62412   0.315   4.538   5.530  0.1017  0.4215  0.5647
20324SOL    HW162413   0.278   4.626   5.528 -0.6164  0.1134 -1.2987
20324SOL    HW262414   0.240   4.481   5.545  0.3305  0.0291  0.2293
20325SOL     OW62415   7.691   3.389   7.329  0.0475 -0.3656 -0.4713
20325SOL    HW162416   7.684   3.448   7.404  0.8877 -0.1444 -0.5552
20325SOL    HW262417   7.618   3.329   7.339 -0.4295  0.2750 -0.0158
20326SOL     OW62418   1.828   5.357  11.854  0.3726  0.0280 -0.0547
20326SOL    HW162419   1.734   5.373  11.856  0.1931 -1.0036  0.0930
20326SOL    HW262420   1.866   5.432  11.899 -0.4031  0.2865  0.1790
20327SOL     OW62421   5.138   5.249   6.053 -0.4303 -0.3208 -0.5067
20327SOL    HW162422   5.070   5.221   5.993  0.8397 -2.1800 -1.1701
20327SOL    HW262423   5.160   5.338   6.025 -1.0926 -0.5036 -1.6410
20328SOL     OW62424   5.299   1.817   9.614  0.4829  0.0777 -0.4627
20328SOL    HW162425   5.216   1.821   9.660  1.7234 -0.0323  1.9082
20328SOL    HW262426   5.312   1.905   9.578 -1.2061 -0.2494 -2.0119
20329SOL     OW62427   7.750   3.208   3.859 -0.1938  0.6034  0.4914
20329SOL    HW162428   7.743   3.127   3.808 -0.6148  2.0243 -1.9012
20329SOL    HW262429   7.659   3.233   3.876 -0.0837  0.8614  0.6981
20330SOL     OW62430   0.526   4.415  10.494  0.0547 -0.3162 -0.1547
20330SOL    HW162431   0.528   4.436  10.400  2.3455  0.1961 -0.0444
20330SOL    HW262432   0.584   4.480  10.534  0.1120 -1.3056  1.4430
20331SOL     OW62433   4.105   1.034   4.554  0.0394  0.2020 -0.2558
20331SOL    HW162434   4.173   1.094   4.587  0.5788  0.0220 -1.0198
20331SOL    HW262435   4.068   1.079   4.479  0.0870 -0.1889 -0.5162
20332SOL     OW62436   7.196   5.644   8.342  0.5702 -0.6188 -0.6655
20332SOL    HW162437   7.100   5.641   8.339  0.5560  0.0706 -1.1871
20332SOL    HW262438   7.217   5.730   8.378  0.9789  0.2950 -2.8852
20333SOL     OW62439   6.180   2.019   2.935  0.6730  0.0469 -0.0109
20333SOL    HW162440   6.274   2.020   2.952  1.3266 -1.5349 -2.8545
20333SOL    HW262441   6.162   2.104   2.896  1.5473 -0.5918 -1.9171
20334SOL     OW62442   3.575   7.173   6.523  0.0083  0.3677 -0.4267
20334SOL    HW162443   3.624   7.212   6.451 -0.7535  1.5831 -0.3189
20334SOL    HW262444   3.539   7.248   6.570 -0.1565 -0.4377  0.7577
20335SOL     OW62445   7.487   3.645  10.994  0.0115  0.4818  0.1135
20335SOL    HW162446   7.534   3.563  11.011 -1.1982 -0.4046 -0.7041
20335SOL    HW262447   7.400   3.618  10.966 -0.6459  2.0743  0.4974
20336SOL     OW62448   0.034   1.961   9.214 -0.2570  0.1413 -0.0130
20336SOL    HW162449   0.074   1.883   9.251 -0.8774  0.6944  1.9294
20336SOL    HW262450  -0.024   1.927   9.145  0.6762 -0.9462 -0.2992
20337SOL     OW62451   6.795   3.876   2.183 -0.2876 -0.8319  0.1084
20337SOL    HW162452   6.837   3.916   2.107 -1.1045 -0.0249  0.0588
20337SOL    HW262453   6.780   3.785   2.158 -0.3105 -0.6404 -0.5917
20338SOL     OW62454   7.175   7.282   3.540 -0.5113 -0.4249 -0.1041
20338SOL    HW162455   7.183   7.188   3.556 -0.1331 -0.7427 -1.9414
20338SOL    HW262456   7.248   7.321   3.589  0.1209 -1.2383 -0.3691
20339SOL     OW62457   5.604   3.676   0.605 -0.0149  0.6052  0.0862
20339SOL    HW162458   5.537   3.614   0.635 -0.2549  0.8387  0.0328
20339SOL    HW262459   5.574   3.704   0.518 -1.0237  2.4078  0.9611
20340SOL     OW62460   2.785   3.474   2.668  0.4838  0.6846  0.2626
20340SOL    HW162461   2.789   3.484   2.763  1.2078  0.6844  0.2378
20340SOL    HW262462   2.736   3.549   2.637  2.7192  2.2990  0.3876
20341SOL     OW62463   4.652   1.194   7.976  0.4221  0.5390 -0.4083
20341SOL    HW162464   4.633   1.100   7.969  0.8037  0.2788  1.3755
20341SOL    HW262465   4.734   1.205   7.928  0.8287 -0.2192  0.0908
20342SOL     OW62466   2.116   6.966   5.288 -1.0291  0.2510 -0.3019
20342SOL    HW162467   2.020   6.974   5.286 -1.1739 -0.8573  1.2664
20342SOL    HW262468   2.134   6.907   5.361  0.8221 -0.2052 -1.0784
20343SOL     OW62469   5.308   3.850  11.238 -0.5706  0.0479 -0.6550
20343SOL    HW162470   5.387   3.840  11.186 -1.1076 -3.1697 -1.0346
20343SOL    HW262471   5.237   3.827  11.178 -1.5185 -0.0244  0.4676
20344SOL     OW62472   1.091   4.588  10.024 -0.3757  0.2843 -0.1243
20344SOL    HW162473   1.013   4.604  10.077 -1.3293 -0.2182 -1.3331
20344SOL    HW262474   1.061   4.534   9.952  1.5502 -1.8855  0.5714
20345SOL     OW62475   6.744   1.988   8.524  0.2617  0.2921  0.3208
20345SOL    HW162476   6.761   2.078   8.494  0.4889 -0.3401 -1.6377
20345SOL    HW262477   6.649   1.983   8.532  0.1974  0.5366 -0.2139
20346SOL     OW62478   2.507   5.866  11.832 -0.2748 -0.0444 -0.4189
20346SOL    HW162479   2.594   5.898  11.857 -0.2665 -1.3980  1.5044
20346SOL    HW262480   2.479   5.925  11.762  0.1851  3.5062  2.1145
20347SOL     OW62481   6.560   7.253  12.065  0.4581  0.1453  0.1833
20347SOL    HW162482   6.617   7.233  12.140  2.3757  0.2720 -1.1571
20347SOL    HW262483   6.525   7.168  12.039 -0.3595  0.1187  1.2807
20348SOL     OW62484   7.021   7.200  10.999  0.3717  0.8408  0.3823
20348SOL    HW162485   7.021   7.142  10.923  0.1637  0.4031  0.7064
20348SOL    HW262486   6.955   7.266  10.979 -0.2089  0.3035  0.4923
20349SOL     OW62487   1.625   6.038   8.160 -0.0826 -0.2877 -0.3360
20349SOL    HW162488   1.709   6.033   8.206  1.1197 -1.0145 -2.4592
20349SOL    HW262489   1.568   5.978   8.208  0.1352  1.1866  1.9295
20350SOL     OW62490   3.298   7.903   8.936  0.9498  0.5313  0.7932
20350SOL    HW162491   3.215   7.951   8.941  0.1998 -0.5382 -0.7930
20350SOL    HW262492   3.316   7.879   9.027 -0.2827  1.0811  1.2184
20351SOL     OW62493   4.816   1.933   5.715 -0.1134  0.1069 -0.1822
20351SOL    HW162494   4.756   1.915   5.787  0.2231  1.4627  0.4872
20351SOL    HW262495   4.760   1.948   5.639 -0.6349  0.9780  0.3472
20352SOL     OW62496   4.179   4.823   5.563 -0.4028 -0.3845 -0.1432
20352SOL    HW162497   4.214   4.815   5.651 -0.2418  0.7972 -0.0817
20352SOL    HW262498   4.084   4.825   5.575 -0.3504  1.4368  0.1867
20353SOL     OW62499   4.367   2.113   0.469  0.3155  1.0353  0.0493
20353SOL    HW162500   4.313   2.190   0.451  1.0617  1.8490  1.1579
20353SOL    HW262501   4.456   2.140   0.446  0.5838  0.5027  0.4272
20354SOL     OW62502   3.777   4.263   2.209 -0.6475 -0.1550 -0.0531
20354SOL    HW162503   3.844   4.216   2.258 -1.1271 -1.3326 -0.4854
20354SOL    HW262504   3.824   4.302   2.135  0.0569  1.5356  1.2193
20355SOL     OW62505   6.046   3.487   2.796  0.3615  0.2798  0.5246
20355SOL    HW162506   6.133   3.524   2.781  1.0829 -1.7716 -0.7446
20355SOL    HW262507   5.994   3.517   2.722  0.6618 -0.4101  0.0302
20356SOL     OW62508   7.305   2.152   3.414  0.1986  0.0895 -0.3377
20356SOL    HW162509   7.317   2.217   3.483  0.6705  1.0142 -1.2582
20356SOL    HW262510   7.394   2.129   3.387  0.0205 -0.3237 -0.5945
20357SOL     OW62511   5.798   3.176   2.658  1.0369  0.0153  0.1000
20357SOL    HW162512   5.811   3.181   2.563 -0.1562  1.4122 -0.0267
20357SOL    HW262513   5.786   3.083   2.676  0.3250 -0.1775 -1.2606
20358SOL     OW62514   3.762   6.772   9.404 -0.2427  0.2419  0.0179
20358SOL    HW162515   3.748   6.848   9.462  0.6319  0.8261 -0.5157
20358SOL    HW262516   3.757   6.696   9.462 -1.9662  0.6243  0.4423
20359SOL     OW62517   7.266   5.655   7.945 -0.3631  0.0877  0.0616
20359SOL    HW162518   7.339   5.681   8.000  0.7853 -0.0322 -1.3585
20359SOL    HW262519   7.199   5.626   8.007  1.1458 -0.7435  1.3803
20360SOL     OW62520   2.887   6.832  10.954 -0.4235 -0.6122 -0.1247
20360SOL    HW162521   2.886   6.870  11.042 -2.0224 -0.4332 -0.1866
20360SOL    HW262522   2.904   6.907  10.896  0.4584 -0.7007  0.0206
20361SOL     OW62523   0.229   1.180  10.726 -0.5275  0.2595  0.1071
20361SOL    HW162524   0.309   1.180  10.778  0.9469  1.3492 -2.0204
20361SOL    HW262525   0.162   1.216  10.785  1.2004  2.0873  1.0636
20362SOL     OW62526   6.593   1.079   1.249  0.1499 -0.3032 -0.1185
20362SOL    HW162527   6.527   1.147   1.264  0.6800  0.3242 -0.5806
20362SOL    HW262528   6.621   1.053   1.337 -1.1026 -0.9844  0.1082
20363SOL     OW62529   5.335   4.875  10.602  0.3644  0.3460  0.2490
20363SOL    HW162530   5.275   4.928  10.655  0.7751 -1.1218  2.2910
20363SOL    HW262531   5.293   4.789  10.597  1.5255 -0.2381  0.3239
20364SOL     OW62532   5.729   1.490   3.321  0.5008  0.1554  0.0894
20364SOL    HW162533   5.701   1.469   3.410  0.7219 -0.0205  0.1184
20364SOL    HW262534   5.688   1.575   3.302 -0.7840 -0.5154 -0.2120
20365SOL     OW62535   1.183   1.111   4.791 -0.8052 -0.5147  0.2773
20365SOL    HW162536   1.174   1.183   4.728  0.1657 -0.2177  0.4690
20365SOL    HW262537   1.271   1.121   4.827 -1.0254 -1.2130  1.0384
20366SOL     OW62538   7.533   3.725  10.592  0.0521 -0.1321  0.1261
20366SOL    HW162539   7.598   3.715  10.661 -0.3698  0.0552  0.5576
20366SOL    HW262540   7.469   3.786  10.628 -1.1281 -1.4079  0.2612
20367SOL     OW62541   6.588   4.698   1.890  0.0986  0.0029  0.8496
20367SOL    HW162542   6.519   4.724   1.829  0.1801 -1.1040  0.2674
20367SOL    HW262543   6.541   4.665   1.967 -0.0032  0.6922  1.0926
20368SOL     OW62544   2.329   1.095   6.543  0.0788  0.2766 -0.5951
20368SOL    HW162545   2.267   1.051   6.486  0.4581 -1.1796  0.0658
20368SOL    HW262546   2.276   1.157   6.594 -0.8772 -1.0469  0.0644
20369SOL     OW62547   0.895   5.015  12.418 -0.0197  0.5068  0.6204
20369SOL    HW162548   0.857   5.028  12.332 -0.8324  0.7439  1.0016
20369SOL    HW262549   0.988   5.032  12.407 -0.0314  0.0036 -0.3164
20370SOL     OW62550   1.126   3.504  10.638 -0.2622 -0.0436  0.1486
20370SOL    HW162551   1.089   3.444  10.702 -1.2914  0.6035  0.1919
20370SOL    HW262552   1.160   3.577  10.690 -1.0438  0.4538 -0.0157
20371SOL     OW62553   3.932   7.208  10.514  0.3301  0.7002  0.0992
20371SOL    HW162554   3.875   7.271  10.557  0.9912  0.7772  0.8780
20371SOL    HW262555   3.933   7.132  10.572  0.6136  0.4923 -0.1705
20372SOL     OW62556   4.413   7.723   4.547  0.3454  0.6434 -0.0814
20372SOL    HW162557   4.386   7.809   4.579 -1.4029 -0.3065  1.1211
20372SOL    HW262558   4.338   7.692   4.496  1.2552  0.1201 -1.1513
20373SOL     OW62559   7.172   0.462   1.190  0.3067 -0.0353 -0.3218
20373SOL    HW162560   7.223   0.477   1.111  0.6348  0.2870 -0.0498
20373SOL    HW262561   7.201   0.529   1.252 -0.0515 -0.1891  0.0244
20374SOL     OW62562   1.432   3.350   3.168  0.2067 -0.3857 -0.2880
20374SOL    HW162563   1.358   3.407   3.146 -0.2381 -0.3716  1.1328
20374SOL    HW262564   1.418   3.272   3.115 -0.5201 -0.1524 -0.4524
20375SOL     OW62565   3.503   5.848   0.958 -0.7318  0.3848  0.5562
20375SOL    HW162566   3.587   5.828   0.999  0.1937  0.2505 -1.3309
20375SOL    HW262567   3.458   5.764   0.952  0.2329 -0.0445 -1.0352
20376SOL     OW62568   5.525   3.760   6.763  0.0166  0.8039  0.2763
20376SOL    HW162569   5.618   3.748   6.782 -0.0218  0.6230  0.3559
20376SOL    HW262570   5.521   3.839   6.710  0.2134  0.8284  0.2978
20377SOL     OW62571   7.810   7.917   9.415 -0.3226  0.2444 -0.3540
20377SOL    HW162572   7.883   7.868   9.454  0.3832  0.5188 -1.2722
20377SOL    HW262573   7.737   7.855   9.414 -0.3773  0.2336  1.3734
20378SOL     OW62574   6.608   1.807   4.791  0.2887  0.6719  0.1211
20378SOL    HW162575   6.572   1.892   4.814  0.1747  0.7078 -0.1806
20378SOL    HW262576   6.546   1.744   4.826  0.2271  0.7207  0.1004
20379SOL     OW62577   5.819   4.929  10.024  0.2599 -0.0907 -0.0216
20379SOL    HW162578   5.899   4.926  10.076  0.9401  1.6417 -0.8938
20379SOL    HW262579   5.849   4.942   9.934 -0.9911  0.0085 -0.4480
20380SOL     OW62580   4.355   6.968  11.350 -0.3192 -0.4883 -0.3767
20380SOL    HW162581   4.278   6.960  11.407  0.0485 -1.9649 -0.0559
20380SOL    HW262582   4.388   6.879  11.341  1.6482  0.1498 -0.1058
20381SOL     OW62583   2.041   7.461   9.797  0.0749 -0.2961 -0.5519
20381SOL    HW162584   2.129   7.425   9.796  0.7227  1.2017 -1.1968
20381SOL    HW262585   2.040   7.523   9.870  0.2471  1.2081 -1.7727
20382SOL     OW62586   4.004   4.175   6.335  0.2270 -0.2051 -0.2223
20382SOL    HW162587   3.961   4.126   6.405 -2.6563  0.9903 -1.0103
20382SOL    HW262588   4.004   4.115   6.260  3.4613 -1.5462  0.6541
20383SOL     OW62589   1.056   3.720   7.609 -0.1360 -0.0046  0.0346
20383SOL    HW162590   1.099   3.806   7.616  0.3943 -0.1846 -0.9268
20383SOL    HW262591   1.128   3.657   7.615 -0.4942 -0.3845  0.4541
20384SOL     OW62592   5.922   6.306   6.627  0.7736 -0.4824 -0.5530
20384SOL    HW162593   5.947   6.286   6.717 -0.6293 -0.6915 -0.1825
20384SOL    HW262594   5.928   6.223   6.581  1.8596 -0.3019 -0.7620
20385SOL     OW62595   3.433   3.648   5.593 -0.2436 -0.4175  0.4047
20385SOL    HW162596   3.350   3.675   5.632  0.9695  1.0751  2.1303
20385SOL    HW262597   3.443   3.703   5.516 -0.3777  0.1993  0.8169
20386SOL     OW62598   2.345   5.275  10.300 -0.4882  0.0061 -0.4846
20386SOL    HW162599   2.274   5.212  10.314 -0.8076  0.6397  1.0020
20386SOL    HW262600   2.304   5.349  10.255  0.4529 -1.8618 -4.8663
20387SOL     OW62601   1.777   2.112   4.371 -0.2569  0.4468 -0.6413
20387SOL    HW162602   1.785   2.189   4.427  1.1975 -1.0389  1.3323
20387SOL    HW262603   1.861   2.067   4.378 -1.8245 -2.6204  0.3625
20388SOL     OW62604   3.413   6.595   9.275  0.1915  0.0647  0.3386
20388SOL    HW162605   3.474   6.598   9.350  0.7732  0.6789 -0.1436
20388SOL    HW262606   3.456   6.537   9.212  1.0411  1.6850 -0.6283
20389SOL     OW62607   0.307   3.769   4.399  0.5130  0.4764 -0.1996
20389SOL    HW162608   0.345   3.708   4.462  0.6830  0.8993  0.1156
20389SOL    HW262609   0.380   3.826   4.375  0.1416  1.1340  0.2148
20390SOL     OW62610   3.764   0.363   7.159  0.2723 -0.4221  0.0505
20390SOL    HW162611   3.760   0.299   7.229 -1.2681 -1.5027 -0.9704
20390SOL    HW262612   3.674   0.371   7.128  0.5740  1.5816 -0.4515
20391SOL     OW62613   0.787   2.090   3.682 -0.3803 -0.1695 -0.7793
20391SOL    HW162614   0.719   2.112   3.746 -0.5430 -0.3820 -0.8807
20391SOL    HW262615   0.869   2.097   3.731 -0.6095 -2.1851 -0.0349
20392SOL     OW62616   1.293   6.758   5.217  0.0104  0.3789 -0.4663
20392SOL    HW162617   1.274   6.851   5.233 -0.5807  0.2514 -0.4261
20392SOL    HW262618   1.235   6.734   5.145  0.3397  0.1026 -0.6378
20393SOL     OW62619   2.885   5.825   4.313  0.0974  0.0195 -0.2151
20393SOL    HW162620   2.917   5.914   4.330 -1.2273  0.6483 -0.8656
20393SOL    HW262621   2.790   5.835   4.305  0.0443 -1.2618 -1.5658
20394SOL     OW62622   7.663   4.224  12.373 -0.3190  0.2007  0.1463
20394SOL    HW162623   7.646   4.268  12.456 -0.3784  0.7472 -0.1463
20394SOL    HW262624   7.758   4.211  12.371  0.0100  2.2555 -0.6795
20395SOL     OW62625   2.316   4.778   2.109  0.3347 -0.1279  0.2765
20395SOL    HW162626   2.351   4.707   2.163  0.9576  0.4492  0.6353
20395SOL    HW262627   2.225   4.787   2.137  0.4804 -0.2464  0.7880
20396SOL     OW62628   1.607   1.273   9.338 -0.6780  0.1014  0.1949
20396SOL    HW162629   1.700   1.256   9.324 -0.1770  2.1081  0.6943
20396SOL    HW262630   1.564   1.243   9.258  0.5791  0.4274 -0.6292
20397SOL     OW62631   2.145   4.660  11.289  0.5991 -0.4319  0.3424
20397SOL    HW162632   2.178   4.698  11.371  0.6818  2.0116 -0.7343
20397SOL    HW262633   2.223   4.649  11.235  0.3599 -0.4519 -0.0004
20398SOL     OW62634   6.648   2.746  11.283 -0.6492 -0.0431 -0.5939
20398SOL    HW162635   6.600   2.772  11.204 -1.0318 -0.8946 -0.6517
20398SOL    HW262636   6.731   2.711  11.250  0.1760  1.7110 -0.4773
20399SOL     OW62637   5.929   0.124   4.961 -0.2455 -0.1990  0.1214
20399SOL    HW162638   5.861   0.165   5.014 -0.7054 -0.8464  0.0435
20399SOL    HW262639   5.890   0.119   4.873 -1.0671 -2.7308  0.5652
20400SOL     OW62640   0.928   2.538  12.238 -0.0544  0.0789  0.2740
20400SOL    HW162641   0.972   2.555  12.322  1.2351  0.5524 -0.4706
20400SOL    HW262642   0.945   2.616  12.186  0.3830 -0.7834 -0.9217
20401SOL     OW62643   0.042   6.680  10.358 -0.0181  0.5852  0.1802
20401SOL    HW162644   0.127   6.675  10.402 -0.0710 -2.8967  0.1626
20401SOL    HW262645   0.056   6.637  10.274 -2.0824 -1.5776  0.8384
20402SOL     OW62646   1.807   3.178   7.796 -0.5987 -0.6494 -0.3973
20402SOL    HW162647   1.802   3.108   7.861  0.2770  0.9644  1.5328
20402SOL    HW262648   1.893   3.218   7.812 -1.6463  1.7782 -0.3798
20403SOL     OW62649   4.552   6.092  10.132  0.7053  0.5128  0.4168
20403SOL    HW162650   4.622   6.031  10.112  1.3616  0.3210  2.8925
20403SOL    HW262651   4.548   6.150  10.057  2.6849 -0.2326 -0.3315
20404SOL     OW62652   6.941   7.194  11.268  0.2309 -0.3840 -0.4818
20404SOL    HW162653   6.939   7.100  11.286 -1.9850 -0.6944 -1.9249
20404SOL    HW262654   6.968   7.200  11.176 -0.7480  0.2672 -0.7497
20405SOL     OW62655   3.137   1.913   0.203  0.4389  0.0870 -0.0610
20405SOL    HW162656   3.192   1.901   0.125 -0.0319 -1.8251 -0.1611
20405SOL    HW262657   3.141   2.006   0.222  2.2956  0.2566 -1.1041
20406SOL     OW62658   5.977   6.911  10.829 -0.2761 -0.3000  0.0439
20406SOL    HW162659   5.907   6.894  10.765 -1.3250 -0.4839  1.2152
20406SOL    HW262660   5.997   7.004  10.818 -1.1088 -0.1059  0.0802
20407SOL     OW62661   5.244   7.123   4.779 -0.0735 -0.2811  0.2060
20407SOL    HW162662   5.306   7.186   4.741 -1.1043  1.2164  0.9122
20407SOL    HW262663   5.297   7.070   4.838  0.3944  1.7570  1.7439
20408SOL     OW62664   6.738   0.030  11.978 -0.0650  0.1926  0.0690
20408SOL    HW162665   6.776  -0.029  12.042  1.7920  1.0645 -0.1387
20408SOL    HW262666   6.716   0.109  12.027 -1.5845 -0.2579  0.1631
20409SOL     OW62667   4.023   6.934   3.104 -0.5899  0.2728  0.1090
20409SOL    HW162668   4.017   6.997   3.033  0.3434  0.7295  0.4181
20409SOL    HW262669   4.004   6.849   3.063 -0.8708  0.6334 -0.5098
20410SOL     OW62670   2.587   3.781   4.239  0.1358 -0.0068  0.2772
20410SOL    HW162671   2.524   3.713   4.263  1.5373 -0.9720  1.4572
20410SOL    HW262672   2.534   3.857   4.216 -1.4971 -1.4480 -1.0001
20411SOL     OW62673   2.714   5.629   6.880 -0.3547  0.7726 -0.2488
20411SOL    HW162674   2.705   5.692   6.809  0.4373  0.8310 -0.3069
20411SOL    HW262675   2.626   5.621   6.916 -0.7002  0.9797 -1.0303
20412SOL     OW62676   6.836   4.858  10.156 -0.2044 -0.0135  0.2401
20412SOL    HW162677   6.841   4.890  10.066 -1.0945 -0.9611 -0.1604
20412SOL    HW262678   6.922   4.820  10.172 -0.4185 -0.8793 -0.6166
20413SOL     OW62679   4.229   0.767   5.187 -0.1076  0.2807 -0.3127
20413SOL    HW162680   4.134   0.754   5.180 -0.2322 -0.6883  2.1697
20413SOL    HW262681   4.266   0.679   5.179  0.7060  0.7465 -2.1246
20414SOL     OW62682   2.690   1.310   9.061  0.1397  0.5906  0.0582
20414SOL    HW162683   2.710   1.294   8.969 -0.5898 -0.2009  0.0161
20414SOL    HW262684   2.717   1.230   9.106 -5.0020 -1.7932 -0.3681
20415SOL     OW62685   1.805   1.637   4.311  0.0350 -0.9347  0.2248
20415SOL    HW162686   1.859   1.629   4.389 -0.9581  4.4452  1.9115
20415SOL    HW262687   1.867   1.654   4.240  0.8128  0.2991  1.1577
20416SOL     OW62688   3.830   0.826   9.606  0.2756 -0.5798 -0.2966
20416SOL    HW162689   3.903   0.861   9.554 -0.0827 -0.7496 -0.9320
20416SOL    HW262690   3.840   0.731   9.598 -0.1636 -0.6008 -0.5989
20417SOL     OW62691   7.886   5.821   5.997 -0.2440 -0.3563 -0.2099
20417SOL    HW162692   7.881   5.853   6.087 -0.1854  0.5103 -0.5056
20417SOL    HW262693   7.933   5.889   5.949 -1.0967 -0.3497 -1.0876
20418SOL     OW62694   5.392   6.983   6.618 -0.1227 -0.5037  0.2001
20418SOL    HW162695   5.480   6.950   6.600 -0.3789 -1.6989  1.0185
20418SOL    HW262696   5.334   6.928   6.565 -0.3288  1.2595 -1.5481
20419SOL     OW62697   1.844   6.951  10.936 -0.0248 -0.0353  0.2918
20419SOL    HW162698   1.792   6.981  10.862  2.4774  1.2763 -1.0587
20419SOL    HW262699   1.909   6.893  10.897 -0.0975 -1.2080  1.8369
20420SOL     OW62700   6.822   6.296   3.982  0.2650 -0.5053 -0.1393
20420SOL    HW162701   6.758   6.262   3.920  1.4574 -1.2156 -1.0266
20420SOL    HW262702   6.851   6.219   4.032  1.9602 -0.6102 -1.2128
20421SOL     OW62703   1.954   2.853   7.901 -0.0406  0.2968  0.5057
20421SOL    HW162704   1.966   2.886   7.812 -1.0929  0.9091  0.5797
20421SOL    HW262705   1.994   2.766   7.899 -0.1682  0.2485 -0.5984
20422SOL     OW62706   0.006   1.424   9.810  0.0961  0.1095  0.3978
20422SOL    HW162707   0.064   1.498   9.791  2.4145 -1.4174  1.1901
20422SOL    HW262708  -0.011   1.431   9.904 -0.7263  0.3081  0.2473
20423SOL     OW62709   7.432   5.443  11.028 -0.3125  0.1005  0.1864
20423SOL    HW162710   7.497   5.497  10.983 -0.6088  1.2482  1.1033
20423SOL    HW262711   7.387   5.396  10.958  2.1849 -1.5485 -0.4238
20424SOL     OW62712   3.113   2.198   0.298  0.1192 -0.6012  0.2947
20424SOL    HW162713   3.135   2.213   0.390  0.9388 -1.5145  0.2716
20424SOL    HW262714   3.018   2.212   0.293  0.1200 -0.2195  1.2072
20425SOL     OW62715   0.294   0.567   1.768  0.0792 -0.1222 -0.1299
20425SOL    HW162716   0.281   0.472   1.773  0.1015 -0.3826 -3.1626
20425SOL    HW262717   0.389   0.579   1.770  0.1024 -0.2346 -0.6008
20426SOL     OW62718   4.399   5.373   0.950 -0.4079  0.0032  0.1559
20426SOL    HW162719   4.394   5.425   1.030  1.6211  0.5535 -0.0059
20426SOL    HW262720   4.312   5.380   0.911 -1.5869 -0.5892  2.4555
20427SOL     OW62721   1.770   3.613   0.779  0.0837  0.5418  0.9654
20427SOL    HW162722   1.840   3.672   0.807  0.7001  0.5271 -0.4239
20427SOL    HW262723   1.814   3.529   0.765 -0.4929  0.1548  1.4455
20428SOL     OW62724   0.014   1.040   2.838  0.4264 -0.2358 -0.5506
20428SOL    HW162725   0.071   1.065   2.911  0.9931 -0.9878 -0.7236
20428SOL    HW262726   0.038   0.950   2.818  0.6138  0.0963 -1.9732
20429SOL     OW62727   3.322   1.017   4.428  0.2740  0.1537  0.1112
20429SOL    HW162728   3.299   1.050   4.341 -0.3255 -1.5127 -0.3958
20429SOL    HW262729   3.383   0.945   4.411 -1.1689 -1.3253  0.9153
20430SOL     OW62730   5.657   4.786   1.244  0.5422  0.7080  0.2294
20430SOL    HW162731   5.577   4.750   1.283 -1.2833  2.4660 -1.6669
20430SOL    HW262732   5.701   4.710   1.206 -1.2531 -0.0937 -0.3812
20431SOL     OW62733   4.576   7.233   1.610 -0.0686 -0.2434 -0.4748
20431SOL    HW162734   4.572   7.162   1.546  1.7188 -0.2307 -0.6464
20431SOL    HW262735   4.529   7.305   1.567 -0.5459 -0.8178 -0.9480
20432SOL     OW62736   0.870   5.001   1.469  0.1844  0.2967 -0.2893
20432SOL    HW162737   0.839   4.998   1.379  0.0889 -0.4781 -0.2385
20432SOL    HW262738   0.962   5.027   1.462  0.4889 -0.8098 -0.7072
20433SOL     OW62739   2.114   1.463   4.096  0.0587 -0.0943 -0.0399
20433SOL    HW162740   2.063   1.541   4.117 -0.0313  0.0177 -0.6653
20433SOL    HW262741   2.197   1.497   4.064 -0.0320 -0.2488 -0.4456
20434SOL     OW62742   5.067   1.924   9.236 -0.1841  0.1897  0.4819
20434SOL    HW162743   5.091   1.835   9.264  2.2962  0.3823 -0.7328
20434SOL    HW262744   5.052   1.971   9.318 -0.6906 -1.1231  1.1797
20435SOL     OW62745   7.178   5.723   9.789 -0.4305  0.4050  0.2350
20435SOL    HW162746   7.125   5.712   9.710  1.1866 -2.2920 -0.6266
20435SOL    HW262747   7.134   5.669   9.855 -0.1674  0.2310  0.2719
20436SOL     OW62748   3.258   2.927   9.531 -0.1457 -0.2372  0.4836
20436SOL    HW162749   3.352   2.913   9.521 -0.3913 -1.3437 -0.5311
20436SOL    HW262750   3.230   2.857   9.591 -0.5509 -0.8908 -0.4464
20437SOL     OW62751   7.636   6.888  10.681  0.6446 -0.3052  0.1428
20437SOL    HW162752   7.684   6.970  10.680  0.4153 -0.1198 -2.3596
20437SOL    HW262753   7.703   6.820  10.675  0.7482 -0.2059  0.1901
20438SOL     OW62754   0.910   2.916   1.811 -0.1220 -0.2359 -0.6954
20438SOL    HW162755   0.975   2.894   1.878 -1.0973  1.0329  0.7281
20438SOL    HW262756   0.958   2.968   1.747  0.9079 -1.7652 -1.2211
20439SOL     OW62757   3.137   2.908   3.242 -0.4359  0.1923  0.5233
20439SOL    HW162758   3.223   2.869   3.257 -1.1012 -1.2118  0.8122
20439SOL    HW262759   3.140   2.991   3.290  1.5582  1.3304 -1.3915
20440SOL     OW62760   4.327   1.960   7.957  0.1265  0.0012 -0.1678
20440SOL    HW162761   4.244   1.982   7.914  0.5853  0.3115 -0.9265
20440SOL    HW262762   4.370   1.899   7.896  0.5218 -0.0395  0.1457
20441SOL     OW62763   0.113   0.868  11.869  0.6001 -0.0014  0.1446
20441SOL    HW162764   0.174   0.941  11.864  0.5714 -0.0613 -1.5214
20441SOL    HW262765   0.028   0.906  11.845  0.4431 -0.4152  0.0364
20442SOL     OW62766   7.869   6.250  11.611 -0.1715 -0.0288  0.3519
20442SOL    HW162767   7.911   6.325  11.653  1.2431 -0.5416 -0.0788
20442SOL    HW262768   7.794   6.229  11.667  1.2598 -0.2829  2.2751
20443SOL     OW62769   6.693   2.817   1.915 -0.6075 -0.0519 -0.1163
20443SOL    HW162770   6.623   2.770   1.958 -0.9714  0.3783 -0.2333
20443SOL    HW262771   6.650   2.864   1.844 -0.2270  0.3455 -0.0861
20444SOL     OW62772   5.956   6.584   3.399 -0.4029  0.0242  0.0013
20444SOL    HW162773   5.952   6.561   3.492  0.9428  0.2867  0.1465
20444SOL    HW262774   5.924   6.674   3.396  2.3226  1.1130  0.6927
20445SOL     OW62775   7.253   3.428   3.287  0.1343 -0.0182  0.6088
20445SOL    HW162776   7.247   3.333   3.280  1.3995 -0.0861  0.2306
20445SOL    HW262777   7.191   3.450   3.357  0.2101 -1.1723  1.0674
20446SOL     OW62778   2.456   0.566  10.448 -0.6520 -0.0979  0.0900
20446SOL    HW162779   2.550   0.549  10.460 -0.4492  0.1613 -0.9990
20446SOL    HW262780   2.416   0.479  10.446 -0.2477 -0.2786 -0.7206
20447SOL     OW62781   4.580   5.711   1.647 -0.0242 -0.2747 -0.6160
20447SOL    HW162782   4.533   5.730   1.728  0.3170 -0.4005 -0.3826
20447SOL    HW262783   4.514   5.678   1.587 -0.2515 -0.3333 -0.3336
20448SOL     OW62784   3.212   1.073   7.689  0.1972  0.1255 -0.1931
20448SOL    HW162785   3.293   1.114   7.658 -0.2152  0.6471 -0.6214
20448SOL    HW262786   3.212   0.986   7.650  0.5651  0.1126 -0.1665
20449SOL     OW62787   5.867   3.747  12.216 -0.5385 -0.2648  0.2472
20449SOL    HW162788   5.798   3.800  12.257 -1.6453 -0.7385 -0.9420
20449SOL    HW262789   5.944   3.803  12.217 -0.8657  0.1969  1.8195
20450SOL     OW62790   3.431   2.272   1.698  0.3261  0.1129 -0.9090
20450SOL    HW162791   3.345   2.292   1.733  0.7122  0.1354  0.0413
20450SOL    HW262792   3.437   2.325   1.618  0.0623  1.3282 -0.1498
20451SOL     OW62793   4.289   5.978   7.818 -0.2659  0.1036  0.4137
20451SOL    HW162794   4.206   5.989   7.865  0.7318 -0.0803  2.3007
20451SOL    HW262795   4.286   5.888   7.785 -1.6883  0.7579 -1.3963
20452SOL     OW62796   3.267   3.226   8.838  0.1513  0.0170  0.6484
20452SOL    HW162797   3.347   3.176   8.852 -0.8062 -1.2731  1.9004
20452SOL    HW262798   3.238   3.250   8.926 -1.2147 -0.1991  0.2832
20453SOL     OW62799   6.726   3.328  12.418  0.1889  0.1681 -0.3570
20453SOL    HW162800   6.760   3.253  12.466 -1.1033 -0.4055 -0.2917
20453SOL    HW262801   6.769   3.324  12.333  1.5369  0.4603  0.2899
20454SOL     OW62802   0.774   7.766   2.728 -0.2694  0.2310  0.0951
20454SOL    HW162803   0.852   7.789   2.676 -0.6177 -1.3929 -1.2584
20454SOL    HW262804   0.715   7.840   2.717  0.0714  0.3573 -1.0288
20455SOL     OW62805   5.341   6.634   3.674 -0.6948  0.6282  0.1543
20455SOL    HW162806   5.390   6.620   3.755  0.4163  1.4899 -0.3496
20455SOL    HW262807   5.359   6.556   3.622 -0.1995  0.7406  0.1504
20456SOL     OW62808   1.346   6.670   6.116 -0.1893 -0.4261  0.6711
20456SOL    HW162809   1.286   6.737   6.151 -1.0659 -1.1760  0.6465
20456SOL    HW262810   1.432   6.695   6.150 -0.4474  0.8709  0.4325
20457SOL     OW62811   5.408   6.158   7.627  0.1542  0.4614 -0.2014
20457SOL    HW162812   5.453   6.164   7.542  0.0886  0.2291 -0.2514
20457SOL    HW262813   5.402   6.249   7.656 -0.2724  0.5879 -0.6800
20458SOL     OW62814   5.521   7.443   7.369 -0.0714  0.1627 -0.3933
20458SOL    HW162815   5.450   7.400   7.320  0.7628  0.5369 -1.9976
20458SOL    HW262816   5.537   7.525   7.322  1.3573  0.1397 -0.0022
20459SOL     OW62817   6.275   0.473   7.083  0.0052 -0.4946  0.2606
20459SOL    HW162818   6.359   0.499   7.121 -0.3276  0.9579  0.0907
20459SOL    HW262819   6.289   0.477   6.988 -0.6097  1.1640  0.2071
20460SOL     OW62820   5.486   4.078  12.388 -0.2323 -0.0321  0.1541
20460SOL    HW162821   5.412   4.064  12.447 -0.1715  1.2224  0.5709
20460SOL    HW262822   5.466   4.161  12.344 -0.4397 -1.0962 -1.8692
20461SOL     OW62823   5.683   6.837   1.555  0.1498 -0.1904 -0.0069
20461SOL    HW162824   5.711   6.915   1.506  0.5599 -0.1885  0.2256
20461SOL    HW262825   5.748   6.770   1.532  0.0417 -0.3400  0.1271
20462SOL     OW62826   6.805   7.566   1.586  0.5216 -0.0545 -0.0228
20462SOL    HW162827   6.791   7.564   1.492  1.2319 -2.0514 -0.1370
20462SOL    HW262828   6.733   7.515   1.623  0.1664  0.8350  0.5485
20463SOL     OW62829   0.421   5.806   1.544  0.5629  0.0718 -0.0571
20463SOL    HW162830   0.400   5.751   1.469 -1.4227  0.1917  0.3555
20463SOL    HW262831   0.451   5.888   1.505  1.1393 -0.4256 -0.6886
20464SOL     OW62832   2.233   5.211   9.168 -0.2929  0.0107 -0.2500
20464SOL    HW162833   2.251   5.125   9.128 -2.3796 -0.0063 -1.2835
20464SOL    HW262834   2.197   5.263   9.096  0.0399  1.4775  0.6049
20465SOL     OW62835   1.775   2.024   4.977 -0.3793  0.4513  0.2107
20465SOL    HW162836   1.784   2.054   4.887  0.9347 -1.0515 -0.2038
20465SOL    HW262837   1.688   2.052   5.003 -0.5840  1.3688 -1.3411
20466SOL     OW62838   5.280   7.546   4.840 -0.1849 -0.6101  0.2233
20466SOL    HW162839   5.203   7.599   4.863 -0.0825  0.4288 -1.6590
20466SOL    HW262840   5.355   7.604   4.856  0.1511 -1.2006  0.8735
20467SOL     OW62841   7.197   2.992   9.508 -0.2206 -0.6664 -0.0314
20467SOL    HW162842   7.124   2.930   9.509  0.4061 -1.4145  0.1265
20467SOL    HW262843   7.238   2.982   9.594  0.6533 -0.9587 -0.4760
20468SOL     OW62844   5.542   7.669   9.734  0.1641  0.2468 -0.5479
20468SOL    HW162845   5.583   7.588   9.765 -0.1052  0.1898 -0.3426
20468SOL    HW262846   5.463   7.640   9.689 -1.3964  0.5282  1.8284
20469SOL     OW62847   0.002   3.778   3.407 -0.6714 -0.4365  0.0847
20469SOL    HW162848   0.055   3.827   3.345 -0.4911  0.1050  0.6524
20469SOL    HW262849  -0.017   3.695   3.363  0.4426 -0.5445 -0.2195
20470SOL     OW62850   3.400   0.937   8.545  0.1876  0.3037  0.7386
20470SOL    HW162851   3.353   0.963   8.465  2.4084  1.0927 -0.3883
20470SOL    HW262852   3.377   0.845   8.558 -2.0802  0.7898  0.5934
20471SOL     OW62853   6.184   6.927  11.782  0.4226  0.4448  1.1365
20471SOL    HW162854   6.122   6.869  11.826  0.5670 -0.9136 -0.3569
20471SOL    HW262855   6.212   6.878  11.705  0.9061  2.3390  0.0455
20472SOL     OW62856   1.993   1.383   5.643 -0.3006 -0.6213 -0.0154
20472SOL    HW162857   2.032   1.455   5.594 -2.1148 -0.0557 -0.7251
20472SOL    HW262858   1.985   1.416   5.733  3.3750 -1.7947  0.9076
20473SOL     OW62859   6.943   4.476   1.633  0.1665  0.0345  0.3681
20473SOL    HW162860   6.925   4.550   1.692  0.3398  1.4990 -1.3265
20473SOL    HW262861   7.026   4.498   1.591 -0.6001 -0.2348 -1.4104
20474SOL     OW62862   6.487   0.083   3.650 -0.1300  0.1985 -0.3122
20474SOL    HW162863   6.432   0.149   3.608  0.1223 -0.2484 -1.3807
20474SOL    HW262864   6.509   0.121   3.735 -0.3891  1.2744 -0.7063
20475SOL     OW62865   3.538   6.846   7.520 -0.1581 -0.0379  0.0174
20475SOL    HW162866   3.612   6.824   7.576 -0.5451  0.8543  0.9167
20475SOL    HW262867   3.552   6.796   7.440  1.8422  0.7751 -0.1723
20476SOL     OW62868   2.432   2.848   7.743  0.2028  0.1246  0.1139
20476SOL    HW162869   2.403   2.787   7.675 -0.0300  0.5483 -0.1682
20476SOL    HW262870   2.492   2.908   7.697 -0.3325  0.7123  0.1737
20477SOL     OW62871   0.158   3.952   5.473  0.3844 -0.0881 -0.4594
20477SOL    HW162872   0.105   3.908   5.540  1.4034  0.4957  0.7626
20477SOL    HW262873   0.108   3.940   5.392 -1.2520 -0.2024  0.5110
20478SOL     OW62874   2.545   7.345   9.785 -0.1564 -0.3046 -0.1015
20478SOL    HW162875   2.597   7.272   9.751  0.6887 -0.1493  0.8190
20478SOL    HW262876   2.593   7.375   9.861 -0.5404  1.1792 -0.4220
20479SOL     OW62877   6.743   2.141   1.253 -0.2220  0.4024 -0.1839
20479SOL    HW162878   6.736   2.167   1.344 -1.3135  0.4217 -0.2594
20479SOL    HW262879   6.714   2.218   1.204 -0.2284  0.1882 -0.5214
20480SOL     OW62880   7.385   6.863   3.252  0.6181  0.8326  0.1152
20480SOL    HW162881   7.431   6.826   3.327 -1.5760  0.1436  1.2020
20480SOL    HW262882   7.293   6.845   3.269  0.0712 -0.2221 -3.2182
20481SOL     OW62883   6.394   0.634   1.832 -0.1962 -1.0715 -0.5766
20481SOL    HW162884   6.358   0.546   1.843 -0.3371 -0.8712  0.7335
20481SOL    HW262885   6.357   0.684   1.905  1.2770 -0.3758 -0.2749
20482SOL     OW62886   5.228   3.724   4.465 -0.1149 -0.1795 -0.4877
20482SOL    HW162887   5.185   3.649   4.423  0.3289 -0.2318 -0.8534
20482SOL    HW262888   5.314   3.691   4.490 -0.3349 -0.1251  0.3914
20483SOL     OW62889   1.438   4.686   0.899 -0.1393  0.0152  0.6751
20483SOL    HW162890   1.392   4.687   0.983 -2.3273  0.8334 -0.4789
20483SOL    HW262891   1.512   4.747   0.912  2.4329 -3.2355  3.3816
20484SOL     OW62892   4.172   5.611   4.058 -0.2936 -0.0956  0.2982
20484SOL    HW162893   4.193   5.705   4.066  1.4784 -0.6019  3.2265
20484SOL    HW262894   4.103   5.597   4.123 -1.4553 -0.6407 -1.0148
20485SOL     OW62895   7.969   6.124   2.816 -0.1261 -0.1167  0.0180
20485SOL    HW162896   8.049   6.124   2.868  0.4796  2.1992 -0.7860
20485SOL    HW262897   7.999   6.112   2.726 -0.0831  4.1786 -0.7951
20486SOL     OW62898   3.556   5.354  12.387 -0.8789 -0.0499  0.6077
20486SOL    HW162899   3.611   5.336  12.463 -0.7030  0.8456  0.6993
20486SOL    HW262900   3.587   5.438  12.354  0.7709 -1.5064 -1.9715
20487SOL     OW62901   0.901   2.362   3.038  0.3179  0.0592  0.7335
20487SOL    HW162902   0.810   2.343   3.062  0.3602  1.4020  2.0972
20487SOL    HW262903   0.952   2.335   3.115  1.0795 -0.5746  0.0265
20488SOL     OW62904   1.702   6.716  11.529 -0.0522  0.2286 -0.1358
20488SOL    HW162905   1.752   6.635  11.526  2.2341  1.5294  0.6068
20488SOL    HW262906   1.673   6.730  11.439  0.0753 -1.0570 -0.3887
20489SOL     OW62907   4.434   1.200   8.961  0.1479  0.4283 -0.1604
20489SOL    HW162908   4.401   1.209   9.050 -1.3371  1.0324 -0.7342
20489SOL    HW262909   4.463   1.288   8.937  0.8220  0.2053 -0.1803
20490SOL     OW62910   6.640   0.628   1.442 -0.6340 -0.2778  0.4374
20490SOL    HW162911   6.574   0.693   1.420 -0.5235  0.0864  1.1473
20490SOL    HW262912   6.694   0.620   1.362  0.8204  2.2808  1.0479
20491SOL     OW62913   2.436   1.030   3.557  0.4585 -0.2251 -0.1139
20491SOL    HW162914   2.479   1.052   3.640  0.4085  1.3662 -0.4855
20491SOL    HW262915   2.471   0.944   3.534  0.3534 -0.7750  1.6271
20492SOL     OW62916   6.579   0.751   2.913  0.1298 -0.0254  0.0092
20492SOL    HW162917   6.514   0.818   2.933 -1.2669 -1.6013  0.9289
20492SOL    HW262918   6.547   0.708   2.834  0.8252  0.1244 -0.3644
20493SOL     OW62919   2.811   1.150   1.422  0.1372  0.0027 -0.1480
20493SOL    HW162920   2.839   1.078   1.366  0.4340 -1.0808  1.3387
20493SOL    HW262921   2.724   1.173   1.389 -1.1750 -2.8685  0.9644
20494SOL     OW62922   3.981   7.145   9.476  0.5997  0.0813 -0.7690
20494SOL    HW162923   3.888   7.128   9.495  0.6088  1.4055  0.6880
20494SOL    HW262924   4.000   7.090   9.400 -0.5571 -2.5651  0.7188
20495SOL     OW62925   4.246   6.047   8.125  0.2837  0.0008 -0.1955
20495SOL    HW162926   4.168   6.034   8.179 -0.2233  0.8766 -0.6917
20495SOL    HW262927   4.214   6.047   8.035  1.2494 -2.4257 -0.6109
20496SOL     OW62928   2.787   0.013   7.935 -0.4282  0.2164  0.1164
20496SOL    HW162929   2.779  -0.061   7.994 -0.1296  0.4901  0.5059
20496SOL    HW262930   2.868   0.057   7.961 -0.3030  0.3579 -0.4785
20497SOL     OW62931   4.964   6.601   7.282  0.3049 -0.2013 -0.4982
20497SOL    HW162932   5.010   6.628   7.361 -1.2054 -0.2858  0.4551
20497SOL    HW262933   4.974   6.505   7.281 -0.9314 -0.3728  0.4625
20498SOL     OW62934   4.698   4.557   3.469  0.1050  0.4101 -0.4599
20498SOL    HW162935   4.724   4.498   3.398 -2.3626 -0.4808 -0.7413
20498SOL    HW262936   4.640   4.621   3.427 -1.3315 -0.0843  0.6846
20499SOL     OW62937   0.167   2.848   9.861  0.3368  0.1465 -0.0121
20499SOL    HW162938   0.205   2.785   9.799 -0.9625 -0.8430  0.1431
20499SOL    HW262939   0.200   2.820   9.946  3.1907  2.2997 -0.2880
20500SOL     OW62940   1.467   4.911   3.508  0.1132  0.4854  0.0461
20500SOL    HW162941   1.407   4.842   3.481 -0.1199  1.0462 -0.8965
20500SOL    HW262942   1.550   4.889   3.464  0.6462 -0.3201  1.3867
20501SOL     OW62943   7.945   7.072  12.328  0.3654  0.4802  0.2227
20501SOL    HW162944   7.985   7.074  12.415 -0.0096  0.2159  0.3996
20501SOL    HW262945   7.874   7.009  12.335  0.0349  0.8099 -0.1469
20502SOL     OW62946   1.020   4.570   2.005 -0.2846  0.1759 -0.1373
20502SOL    HW162947   1.037   4.664   1.999 -0.7624  0.2182 -4.3778
20502SOL    HW262948   0.929   4.560   1.977 -0.1014 -1.5776 -0.2124
20503SOL     OW62949   4.487   5.084   4.098 -0.2093  0.3144 -0.1118
20503SOL    HW162950   4.451   5.170   4.076  0.3696  0.4089 -0.6909
20503SOL    HW262951   4.564   5.075   4.043 -0.6326 -0.8605 -0.5316
20504SOL     OW62952   7.880   0.815  11.531 -0.2749 -0.1441 -0.1924
20504SOL    HW162953   7.838   0.782  11.611 -2.1704 -0.7187 -1.3599
20504SOL    HW262954   7.866   0.910  11.535  0.4633 -0.0599  0.5935
20505SOL     OW62955   5.393   7.952   6.498 -0.1688 -0.4397  0.3773
20505SOL    HW162956   5.396   7.956   6.402 -0.1266  1.1424  0.4192
20505SOL    HW262957   5.466   8.007   6.526 -0.6483 -0.2827  1.3233
20506SOL     OW62958   5.210   1.090   4.309  0.6523 -0.6842 -1.0774
20506SOL    HW162959   5.238   1.177   4.336 -0.9023 -1.2157  3.0202
20506SOL    HW262960   5.143   1.106   4.242  0.4510  1.2957 -0.4580
20507SOL     OW62961   4.566   2.099   1.090  0.0594  0.0369  0.0556
20507SOL    HW162962   4.537   2.011   1.114 -0.3112  0.1046 -0.1259
20507SOL    HW262963   4.661   2.092   1.083  0.2778  0.1798  2.2203
20508SOL     OW62964   2.222   3.554  10.101 -0.2500 -0.5288 -0.4842
20508SOL    HW162965   2.244   3.645  10.122 -0.6520  0.2305 -2.9921
20508SOL    HW262966   2.127   3.551  10.106 -0.1640 -1.2459  1.0579
20509SOL     OW62967   1.418   3.632   3.416 -0.1672 -0.2092 -0.7415
20509SOL    HW162968   1.329   3.612   3.387 -0.2693 -2.9052  1.0444
20509SOL    HW262969   1.408   3.705   3.477 -1.0572 -0.0061 -1.1212
20510SOL     OW62970   4.186   2.380   9.492 -0.7201  0.7057 -0.2942
20510SOL    HW162971   4.140   2.299   9.513 -0.2802  0.3166 -0.7853
20510SOL    HW262972   4.265   2.351   9.446 -2.3496  1.4868 -3.9279
20511SOL     OW62973   6.557   4.654   6.828 -0.2914 -0.1421  0.0716
20511SOL    HW162974   6.628   4.675   6.890 -0.6934  0.0981  0.4596
20511SOL    HW262975   6.522   4.570   6.858 -0.6367  0.0846  0.3140
20512SOL     OW62976   7.537   5.278   7.419 -0.5556  0.3339  0.1694
20512SOL    HW162977   7.560   5.283   7.326 -1.6809  0.8725 -0.1065
20512SOL    HW262978   7.447   5.312   7.422 -0.8572 -0.5339  1.3307
20513SOL     OW62979   5.139   6.282   1.420  0.0306  0.6726  0.6287
20513SOL    HW162980   5.181   6.352   1.370 -0.4573  0.9509  0.6033
20513SOL    HW262981   5.045   6.295   1.407 -0.0849  0.3695  1.1043
20514SOL     OW62982   2.603   3.334  10.676  0.1018 -0.4175  0.0980
20514SOL    HW162983   2.660   3.397  10.631 -0.1885 -0.5750 -0.5041
20514SOL    HW262984   2.516   3.351  10.641  0.2690 -2.2960 -1.4227
20515SOL     OW62985   6.491   6.321  11.803 -0.1903 -0.0768 -0.6819
20515SOL    HW162986   6.415   6.280  11.842 -0.2078  0.8963  0.3679
20515SOL    HW262987   6.467   6.414  11.795  0.5970  0.1057 -1.0563
20516SOL     OW62988   6.913   4.404  10.597  0.3842  0.2669 -0.4412
20516SOL    HW162989   6.935   4.313  10.618 -0.1468 -0.3724 -2.4122
20516SOL    HW262990   6.910   4.448  10.681 -0.1283 -1.7251  0.6563
20517SOL     OW62991   1.154   5.468  11.762 -0.1200 -0.1818 -0.6922
20517SOL    HW162992   1.127   5.398  11.702 -0.4137  0.4686 -1.3369
20517SOL    HW262993   1.074   5.519  11.776  0.4234  0.9074 -1.4517
20518SOL     OW62994   7.110   6.095   0.792 -0.5817  0.0803  0.2189
20518SOL    HW162995   7.145   6.184   0.788  0.0419  0.1064  3.3325
20518SOL    HW262996   7.187   6.040   0.804 -1.0374 -0.7917 -0.7818
20519SOL     OW62997   7.269   0.745   6.530 -0.2035 -0.8539 -0.4271
20519SOL    HW162998   7.226   0.662   6.508 -1.8253  0.4859 -2.7514
20519SOL    HW262999   7.343   0.750   6.470  0.8572 -1.2642  0.7863
20520SOL     OW63000   0.425   0.419   3.934 -0.8311 -0.4935  0.2081
20520SOL    HW163001   0.475   0.489   3.975 -0.5222  0.4641 -1.7034
20520SOL    HW263002   0.412   0.355   4.004  2.6692 -0.5799  0.9683
20521SOL     OW63003   3.747   4.402   5.986 -0.1668 -0.4256  0.2483
20521SOL    HW163004   3.772   4.419   6.076 -1.0369  1.7937  0.1253
20521SOL    HW263005   3.654   4.425   5.982  0.2616  1.1892 -1.5836
20522SOL     OW63006   0.514   5.619   8.022 -0.4022 -0.1842  0.3633
20522SOL    HW163007   0.518   5.529   8.053  1.5662  0.2647  1.6200
20522SOL    HW263008   0.606   5.642   8.005 -1.0821  0.4278 -3.5604
20523SOL     OW63009   0.932   6.996   3.577 -0.7267  0.1974  0.2196
20523SOL    HW163010   0.930   7.088   3.605 -1.3139  0.1536  0.3381
20523SOL    HW263011   0.940   6.946   3.658  4.8316  0.2047  0.0465
20524SOL     OW63012   5.156   3.001   8.886 -0.2783 -0.0155  0.0204
20524SOL    HW163013   5.226   3.023   8.826  0.4284  2.1578  1.5231
20524SOL    HW263014   5.183   2.918   8.925 -1.0944 -1.8539 -3.0135
20525SOL     OW63015   6.894   5.952   4.495  0.0543 -0.2204  0.4216
20525SOL    HW163016   6.976   5.904   4.507  0.7364  0.8778  0.3253
20525SOL    HW263017   6.921   6.044   4.491 -0.8835  0.0276 -2.2216
20526SOL     OW63018   0.252   3.649  11.940 -0.1012 -0.0199  0.1775
20526SOL    HW163019   0.186   3.646  11.870  1.1461  0.2811 -1.0695
20526SOL    HW263020   0.234   3.730  11.987 -1.0785 -0.3146  0.3367
20527SOL     OW63021   2.820   6.725   4.894 -0.1786 -0.2008 -0.0480
20527SOL    HW163022   2.780   6.754   4.812  0.4494  0.4370 -0.1305
20527SOL    HW263023   2.786   6.636   4.906 -1.6403  0.3154 -0.1008
20528SOL     OW63024   4.606   6.356  11.066 -0.4784  0.3049  0.3742
20528SOL    HW163025   4.636   6.265  11.064 -0.5421  0.2871  0.2173
20528SOL    HW263026   4.526   6.356  11.014 -1.2189  0.1896  1.4754
20529SOL     OW63027   1.284   4.249   8.873  0.5752  0.1139 -0.0514
20529SOL    HW163028   1.262   4.228   8.964  0.0898 -0.7457 -0.3580
20529SOL    HW263029   1.200   4.248   8.828  0.6223  1.9599 -0.2535
20530SOL     OW63030   5.151   3.710   7.732 -0.4772 -0.4704  0.1214
20530SOL    HW163031   5.208   3.659   7.790  1.4386  0.9385 -0.4231
20530SOL    HW263032   5.102   3.644   7.683  1.2805 -1.8022  0.0437
20531SOL     OW63033   7.208   2.727   2.329 -0.3335 -0.2066 -0.2016
20531SOL    HW163034   7.229   2.681   2.410  1.6954 -0.6324 -0.8802
20531SOL    HW263035   7.231   2.818   2.346 -0.2739 -0.2286 -0.1628
20532SOL     OW63036   5.356   6.913  12.445  0.4246  0.2863  0.4575
20532SOL    HW163037   5.399   6.962  12.515 -0.2604  1.4893  0.0442
20532SOL    HW263038   5.269   6.895  12.478 -0.0201  1.1587 -0.2056
20533SOL     OW63039   7.847   3.951   3.873  0.0198 -0.0866 -0.8023
20533SOL    HW163040   7.855   3.957   3.778 -2.4734  0.7368 -1.0487
20533SOL    HW263041   7.784   3.880   3.887  1.1254 -0.8795  0.3172
20534SOL     OW63042   4.818   2.734  10.018 -0.0332 -0.5158 -0.4857
20534SOL    HW163043   4.818   2.736   9.922  0.6974  1.8555 -0.4853
20534SOL    HW263044   4.911   2.731  10.042 -0.1708  0.0673  0.1523
20535SOL     OW63045   1.402   0.659   5.495 -0.1129 -0.1103 -0.1748
20535SOL    HW163046   1.439   0.726   5.551  0.7105 -0.5624 -0.1611
20535SOL    HW263047   1.307   0.670   5.503  0.0060  1.0726 -0.2149
20536SOL     OW63048   0.839   1.654   2.778 -0.3815 -0.1620  0.2797
20536SOL    HW163049   0.811   1.709   2.704 -1.2941 -0.4531  0.3898
20536SOL    HW263050   0.856   1.569   2.739  0.0287 -0.0729  0.2659
20537SOL     OW63051   0.313   5.126   3.321  0.3029 -1.1641 -0.3937
20537SOL    HW163052   0.325   5.218   3.345 -1.2208 -1.1118  0.2923
20537SOL    HW263053   0.296   5.127   3.227  0.9873 -0.8167 -0.5148
20538SOL     OW63054   6.565   4.131   0.212 -0.0325  0.4117  0.4736
20538SOL    HW163055   6.481   4.129   0.258 -1.1607 -0.1159 -1.4691
20538SOL    HW263056   6.582   4.224   0.198  0.7758  0.6401  2.6182
20539SOL     OW63057   5.255   4.143   4.151 -0.3547 -0.2175 -0.2769
20539SOL    HW163058   5.336   4.098   4.176  0.9686  2.1506 -0.0429
20539SOL    HW263059   5.186   4.080   4.173  1.2289 -1.3418  1.9698
20540SOL     OW63060   1.664   1.049   3.996  0.1898  0.1996 -0.2052
20540SOL    HW163061   1.712   1.068   3.916 -3.1032  0.2460 -2.3750
20540SOL    HW263062   1.713   0.979   4.038  1.5047 -0.5852 -2.8384
20541SOL     OW63063   3.956   4.813   9.373  0.2178  0.0380 -0.7688
20541SOL    HW163064   3.935   4.856   9.291 -0.7775 -0.9334 -1.0352
20541SOL    HW263065   3.891   4.744   9.382 -0.0256  0.4585  1.1012
20542SOL     OW63066   6.381   7.513  12.086 -0.1640 -0.0627 -0.3052
20542SOL    HW163067   6.431   7.431  12.083 -0.6937 -0.3732 -1.2329
20542SOL    HW263068   6.292   7.487  12.061 -0.2921  0.8385 -0.8105
20543SOL     OW63069   2.177   7.788   9.247  0.1731 -0.0288 -0.7604
20543SOL    HW163070   2.150   7.877   9.224  1.7338  1.0842  1.4172
20543SOL    HW263071   2.272   7.789   9.238  0.3173 -1.1157  0.3888
20544SOL     OW63072   4.465   2.166   1.445 -0.6820 -0.6589 -0.4448
20544SOL    HW163073   4.534   2.100   1.436 -0.4612 -0.3672 -0.9120
20544SOL    HW263074   4.494   2.239   1.391 -0.2893  0.3681  1.1103
20545SOL     OW63075   0.225   6.179   7.077  0.0172 -0.1375 -0.2542
20545SOL    HW163076   0.191   6.187   7.166  0.8149 -0.4294  0.0877
20545SOL    HW263077   0.155   6.214   7.021 -1.1352 -1.3957  0.3503
20546SOL     OW63078   1.650   5.896   0.768 -0.1149 -0.1557 -0.0954
20546SOL    HW163079   1.703   5.935   0.839  0.0007 -0.4282 -0.0314
20546SOL    HW263080   1.697   5.920   0.688 -1.2386  1.7494 -0.2278
20547SOL     OW63081   4.202   2.543   4.706  0.2579 -0.0587  0.0042
20547SOL    HW163082   4.115   2.530   4.668  0.4035  1.9879 -1.1801
20547SOL    HW263083   4.261   2.497   4.646  0.2036  0.5480 -0.5179
20548SOL     OW63084   2.453   0.148   7.156  0.4042  0.1147  0.0694
20548SOL    HW163085   2.459   0.217   7.223 -0.0544 -0.4891  0.7497
20548SOL    HW263086   2.361   0.150   7.128  0.5343  0.1860 -0.3632
20549SOL     OW63087   7.195   2.848   4.391 -0.1228  0.1110  1.0961
20549SOL    HW163088   7.181   2.921   4.331 -1.3784 -0.6499  0.4179
20549SOL    HW263089   7.156   2.876   4.473  1.7510  1.2261  1.6798
20550SOL     OW63090   6.667   7.849  10.189 -0.2549  0.5811 -0.4629
20550SOL    HW163091   6.591   7.894  10.228  1.4004  1.8588  1.5370
20550SOL    HW263092   6.712   7.810  10.264  0.7162 -0.7288 -1.6841
20551SOL     OW63093   2.913   2.611   0.704 -0.2084  0.1349  0.0133
20551SOL    HW163094   2.995   2.611   0.752 -0.3785 -0.7393  0.3399
20551SOL    HW263095   2.885   2.702   0.702  0.3924  0.3339  0.5572
20552SOL     OW63096   5.689   4.698   1.752 -0.3492 -0.5425  0.1820
20552SOL    HW163097   5.653   4.766   1.695 -0.5664 -0.6555  0.1810
20552SOL    HW263098   5.688   4.619   1.698 -0.3033 -0.5932  0.2553
20553SOL     OW63099   0.796   6.693   2.061 -0.0116 -1.0070  0.2233
20553SOL    HW163100   0.725   6.645   2.018 -0.0982  0.5991 -1.5628
20553SOL    HW263101   0.812   6.768   2.004  1.7400 -0.2113  1.6645
20554SOL     OW63102   1.912   6.890   4.519  0.2444 -0.2392  0.4589
20554SOL    HW163103   1.848   6.930   4.579  0.7808 -0.8262  1.4573
20554SOL    HW263104   1.962   6.963   4.484  0.6317  0.0471  1.5778
20555SOL     OW63105   7.291   2.214   1.059 -0.1323 -0.2862  0.9189
20555SOL    HW163106   7.204   2.175   1.066  0.4621 -2.4124 -1.8694
20555SOL    HW263107   7.282   2.280   0.990  0.7997 -1.8416 -0.7555
20556SOL     OW63108   1.878   4.449   5.245  0.2396  0.3060  0.1537
20556SOL    HW163109   1.852   4.380   5.306 -0.9401  0.4463 -0.1647
20556SOL    HW263110   1.968   4.470   5.269  0.6808 -1.4435  0.1613
20557SOL     OW63111   4.087   2.311   1.296  0.0763 -0.3958 -0.2873
20557SOL    HW163112   4.162   2.287   1.242  1.1940 -2.3091  1.9662
20557SOL    HW263113   4.090   2.407   1.300  1.3901 -0.3503 -1.5775
20558SOL     OW63114   3.105   3.746   9.957  0.8592 -0.3281  0.3525
20558SOL    HW163115   3.095   3.834   9.995 -0.6467  0.0673 -0.8699
20558SOL    HW263116   3.174   3.756   9.892  1.9860 -0.5212  1.4726
20559SOL     OW63117   0.937   7.283  10.429  0.5643 -0.2090  0.4387
20559SOL    HW163118   0.888   7.351  10.383  0.7080 -1.0254 -1.0063
20559SOL    HW263119   0.870   7.225  10.465  0.4123 -0.8313 -0.7711
20560SOL     OW63120   0.570   1.485   3.929 -0.4236 -0.3766 -0.2684
20560SOL    HW163121   0.475   1.483   3.942 -0.3868 -0.2320  0.0283
20560SOL    HW263122   0.590   1.399   3.891 -0.8292  0.0499 -1.4856
20561SOL     OW63123   1.914   4.890  12.017  0.0624 -0.7953 -0.1453
20561SOL    HW163124   1.827   4.930  12.020 -0.4628 -1.8741 -0.5524
20561SOL    HW263125   1.939   4.880  12.108 -0.0414 -0.0750 -0.0297
20562SOL     OW63126   6.940   4.816  10.506 -0.4927  0.1577 -0.3244
20562SOL    HW163127   6.980   4.736  10.471  1.0884  0.7220  0.1144
20562SOL    HW263128   6.846   4.798  10.505 -0.2277 -1.3433 -1.1113
20563SOL     OW63129   0.240   0.869  10.088 -0.3387  0.1615  0.3732
20563SOL    HW163130   0.225   0.891   9.996 -0.4481  1.6889  0.7329
20563SOL    HW263131   0.295   0.939  10.122 -0.9754  0.0789  1.6747
20564SOL     OW63132   7.604   6.354   0.710  0.4971  0.1170  1.1072
20564SOL    HW163133   7.537   6.383   0.649 -0.7392 -1.2690  1.7467
20564SOL    HW263134   7.678   6.412   0.694 -0.6653  1.3577  0.0182
20565SOL     OW63135   6.345   2.293   3.093  0.6862  0.3958 -0.3742
20565SOL    HW163136   6.413   2.226   3.082  0.6590  0.4631 -0.9960
20565SOL    HW263137   6.308   2.275   3.179 -0.0978 -1.1287 -0.9917
20566SOL     OW63138   7.073   3.434   3.642 -0.5592 -0.0423 -0.0637
20566SOL    HW163139   7.093   3.400   3.730  1.0129 -1.6118 -0.9586
20566SOL    HW263140   7.135   3.506   3.630 -0.5753 -0.0151  0.0139
20567SOL     OW63141   7.722   6.781   2.522 -0.1130  0.5656 -0.2922
20567SOL    HW163142   7.764   6.789   2.436 -0.1490  0.6620 -0.3008
20567SOL    HW263143   7.755   6.856   2.571  0.1755  0.3196 -0.1092
20568SOL     OW63144   6.511   4.956   0.812 -0.3564 -0.1649  0.2073
20568SOL    HW163145   6.540   4.937   0.901  1.3395  0.0454 -0.2726
20568SOL    HW263146   6.502   5.052   0.809  0.1907 -0.1117  0.0046
20569SOL     OW63147   0.587   4.881   7.664  0.3686  0.4601  0.1268
20569SOL    HW163148   0.677   4.871   7.634  0.5350 -0.3703  0.8646
20569SOL    HW263149   0.546   4.796   7.649 -0.7922  1.2765 -1.7105
20570SOL     OW63150   2.913   6.624  11.355  0.1308  0.8639 -0.5996
20570SOL    HW163151   2.913   6.638  11.450 -0.4774  2.1593 -0.7691
20570SOL    HW263152   2.829   6.582  11.337  0.0125  1.1126 -0.6283
20571SOL     OW63153   7.542   6.789   7.038  0.1599  0.4213 -0.1216
20571SOL    HW163154   7.539   6.791   7.134  0.9149 -2.1573  0.0176
20571SOL    HW263155   7.453   6.810   7.011 -0.8389 -1.6318  1.2796
20572SOL     OW63156   7.588   3.053   0.074  0.2428 -0.1495 -0.3391
20572SOL    HW163157   7.585   3.130   0.017  2.3979  1.6590  1.7701
20572SOL    HW263158   7.662   3.002   0.040 -0.1812 -0.4807 -0.7739
20573SOL     OW63159   6.879   5.242   0.315 -0.5993 -0.0369  0.0281
20573SOL    HW163160   6.785   5.254   0.329 -0.4867  0.9395 -0.0052
20573SOL    HW263161   6.921   5.308   0.371  0.1161 -1.1793  0.9013
20574SOL     OW63162   0.933   5.012  10.026 -0.2537 -0.4734 -0.3246
20574SOL    HW163163   0.969   4.924  10.039 -0.1909 -0.0525  3.6001
20574SOL    HW263164   1.007   5.063   9.993  0.6905 -1.2071  0.5928
20575SOL     OW63165   0.972   4.383   1.244  0.0124  0.0140  0.1207
20575SOL    HW163166   0.948   4.345   1.329 -0.5723 -2.0882 -0.9155
20575SOL    HW263167   0.910   4.456   1.233  0.9994  1.2432  2.0595
20576SOL     OW63168   5.852   7.471   5.884 -0.0776 -0.0075  0.9106
20576SOL    HW163169   5.937   7.491   5.922 -0.6353  1.4194  1.4824
20576SOL    HW263170   5.791   7.528   5.931 -0.9558  1.0185 -1.3344
20577SOL     OW63171   4.483   4.864   9.328 -0.2497  0.2579 -0.0200
20577SOL    HW163172   4.541   4.940   9.319 -0.3339  0.5237  1.3657
20577SOL    HW263173   4.453   4.869   9.419  0.8273 -2.2001  0.5459
20578SOL     OW63174   7.941   5.653  10.744  0.0912 -0.3109 -0.0434
20578SOL    HW163175   7.975   5.735  10.709 -0.7024 -1.0870 -2.9437
20578SOL    HW263176   7.908   5.675  10.831  0.6856  2.2119 -0.3798
20579SOL     OW63177   5.236   2.883  10.326 -0.1805  0.4918  0.2462
20579SOL    HW163178   5.274   2.902  10.240 -1.9488 -1.0834 -0.9540
20579SOL    HW263179   5.282   2.942  10.385  1.5332  1.2074 -1.6634
20580SOL     OW63180   1.071   6.503   8.224  0.2111  0.1413 -0.0743
20580SOL    HW163181   1.049   6.435   8.160 -1.7040  2.3376 -1.9662
20580SOL    HW263182   1.071   6.458   8.308  0.3086 -2.4104 -1.3538
20581SOL     OW63183   6.242   6.535   6.523 -0.3466  0.2111  0.3191
20581SOL    HW163184   6.237   6.439   6.526  0.5692  0.1304 -0.4722
20581SOL    HW263185   6.199   6.563   6.604 -3.0786 -0.7717 -0.6579
20582SOL     OW63186   4.060   5.825   1.193  0.4041 -0.1596  0.2425
20582SOL    HW163187   3.988   5.886   1.207 -0.8970 -1.1718 -1.6536
20582SOL    HW263188   4.019   5.739   1.191  2.3390 -1.3457  3.9567
20583SOL     OW63189   4.320   6.201   7.596 -0.3473 -0.3480 -0.7612
20583SOL    HW163190   4.361   6.154   7.524 -0.5697 -0.4046 -0.8515
20583SOL    HW263191   4.318   6.137   7.668  0.4980 -0.0753 -0.4869
20584SOL     OW63192   3.978   6.261  10.260  0.3420  0.0205  0.0223
20584SOL    HW163193   3.945   6.171  10.269  0.1045 -0.3235 -3.1499
20584SOL    HW263194   4.071   6.250  10.238  0.1217  0.4839 -1.1880
20585SOL     OW63195   7.573   5.926   8.531 -0.3316  0.2313  0.0585
20585SOL    HW163196   7.562   5.948   8.624 -0.5630 -0.6446  0.2442
20585SOL    HW263197   7.585   6.010   8.488 -0.0839  0.6410  0.9053
20586SOL     OW63198   1.656   1.411   2.211  0.0694 -0.4014  0.2321
20586SOL    HW163199   1.669   1.327   2.167 -0.4703  0.0772 -0.8555
20586SOL    HW263200   1.745   1.438   2.236  0.1567 -1.9059  1.8341
20587SOL     OW63201   0.150   2.710   3.942  0.3380 -0.1568  0.0726
20587SOL    HW163202   0.101   2.782   3.902 -1.2929 -0.8413  0.7360
20587SOL    HW263203   0.197   2.670   3.869  0.7341  1.1462 -0.4160
20588SOL     OW63204   0.293   6.767   2.544  0.4260 -0.8016  0.0892
20588SOL    HW163205   0.275   6.691   2.599  0.8447 -1.5060 -0.7234
20588SOL    HW263206   0.321   6.835   2.606  0.3477 -1.3958  0.7958
20589SOL     OW63207   3.118   5.620   2.290 -0.1393 -0.8342 -0.5707
20589SOL    HW163208   3.055   5.603   2.219 -0.3092  0.2284 -0.6811
20589SOL    HW263209   3.182   5.549   2.282 -0.3062 -0.8834 -1.6169
20590SOL     OW63210   2.397   4.033   9.622 -0.2718  0.0269 -0.3074
20590SOL    HW163211   2.482   4.077   9.630 -0.0862 -0.5083  0.8260
20590SOL    HW263212   2.371   4.016   9.712 -1.1722 -0.6095 -0.6825
20591SOL     OW63213   7.689   7.351   4.945 -0.2632 -0.1809  0.5153
20591SOL    HW163214   7.715   7.443   4.938 -0.1630 -0.1794  0.8845
20591SOL    HW263215   7.609   7.353   4.997 -0.3117 -0.2943  0.4445
20592SOL     OW63216   5.469   6.421   2.860 -0.0409 -1.0755 -0.2870
20592SOL    HW163217   5.544   6.370   2.830 -1.1063 -2.3634 -0.8453
20592SOL    HW263218   5.447   6.478   2.786 -0.2644 -1.4617 -0.5202
20593SOL     OW63219   2.888   1.865   7.688 -0.2381 -0.0605 -0.1226
20593SOL    HW163220   2.796   1.876   7.666 -0.8192 -0.8306  1.7703
20593SOL    HW263221   2.914   1.947   7.729  0.3153  0.6314 -1.7426
20594SOL     OW63222   5.041   6.885   6.209  0.4156 -0.2076 -0.1721
20594SOL    HW163223   4.960   6.933   6.227  1.3349  1.9827 -1.6260
20594SOL    HW263224   5.037   6.810   6.269 -1.5848  1.0734  1.4353
20595SOL     OW63225   6.715   5.922   9.074  0.0359 -0.0721 -0.1488
20595SOL    HW163226   6.792   5.890   9.025  0.5578  1.1083 -0.1246
20595SOL    HW263227   6.685   5.845   9.123  2.0978 -0.2204  0.9907
20596SOL     OW63228   1.808   5.691   7.662 -0.2414 -0.1462  0.6000
20596SOL    HW163229   1.835   5.765   7.717  0.3746  0.2286 -0.1812
20596SOL    HW263230   1.837   5.613   7.710 -2.2287 -0.0043  2.1777
20597SOL     OW63231   1.794   3.305   9.700 -0.3776  0.1627 -0.7399
20597SOL    HW163232   1.714   3.263   9.730 -0.3947  0.1067 -0.8658
20597SOL    HW263233   1.786   3.395   9.732 -0.7814  0.3271 -1.2894
20598SOL     OW63234   3.633   7.025  10.823  0.2947 -0.0005  0.1316
20598SOL    HW163235   3.719   7.062  10.801  0.1483  0.6351  0.5743
20598SOL    HW263236   3.653   6.942  10.866  0.8874  1.4085  2.8444
20599SOL     OW63237   2.586   7.616   1.317  0.3744  0.3610 -0.5447
20599SOL    HW163238   2.555   7.604   1.407 -1.0215 -0.0202 -1.0549
20599SOL    HW263239   2.665   7.562   1.312  1.8933  2.2657  1.1314
20600SOL     OW63240   5.054   5.116   7.308  1.1091 -0.0402  0.1137
20600SOL    HW163241   4.996   5.192   7.299  0.1617 -0.7890 -0.2905
20600SOL    HW263242   5.128   5.148   7.358  1.7091  1.6965 -1.7466
20601SOL     OW63243   7.205   1.169  10.207 -0.1791 -0.5013 -0.2729
20601SOL    HW163244   7.201   1.074  10.203  1.7661 -0.7162  1.5551
20601SOL    HW263245   7.267   1.194  10.138  2.6937 -1.0003  1.9446
20602SOL     OW63246   6.559   0.494  10.702  0.2603  0.2024  0.2532
20602SOL    HW163247   6.553   0.580  10.745 -0.5760  1.1554 -1.6503
20602SOL    HW263248   6.616   0.443  10.759  1.6929  2.3765  0.8932
20603SOL     OW63249   4.024   4.017   4.226 -0.4028  0.3129 -0.3308
20603SOL    HW163250   3.972   4.097   4.220 -0.6007  0.1179 -1.4875
20603SOL    HW263251   4.097   4.040   4.284 -1.1375  0.9384  0.3725
20604SOL     OW63252   0.512   7.668  10.424 -0.1605 -0.5432 -0.4687
20604SOL    HW163253   0.467   7.714  10.495 -0.0769  0.0486 -0.7989
20604SOL    HW263254   0.595   7.639  10.464 -0.5223 -1.0387 -0.0583
20605SOL     OW63255   4.223   3.218   9.662 -0.6983  0.4977 -0.1382
20605SOL    HW163256   4.240   3.312   9.657 -0.7345  0.4520 -1.3084
20605SOL    HW263257   4.150   3.203   9.602  0.0229 -0.4305 -0.8290
20606SOL     OW63258   2.047   1.923   9.768 -0.4598 -0.6276 -0.5735
20606SOL    HW163259   1.975   1.909   9.830  0.1347 -0.3521  0.1969
20606SOL    HW263260   2.055   2.018   9.762  0.6237 -0.6524  0.2874
20607SOL     OW63261   6.769   4.933   3.091 -0.2252  0.1613  0.1186
20607SOL    HW163262   6.805   4.969   3.010 -2.4860  1.2176 -0.4836
20607SOL    HW263263   6.675   4.951   3.087 -0.8150 -2.0048  1.8331
20608SOL     OW63264   2.985   6.226   8.476 -0.4870 -0.5299 -0.3758
20608SOL    HW163265   2.910   6.282   8.496 -1.1758 -1.3856 -0.4910
20608SOL    HW263266   2.988   6.224   8.380 -0.9001 -1.2362 -0.3820
20609SOL     OW63267   1.669   1.263   7.109  0.2205  0.1694  0.0370
20609SOL    HW163268   1.641   1.354   7.124 -1.9292 -0.2049 -1.2423
20609SOL    HW263269   1.744   1.271   7.050 -0.4142  1.1333 -0.6788
20610SOL     OW63270   4.948   5.081   9.651  0.4794 -0.0348  0.5603
20610SOL    HW163271   4.902   5.159   9.683 -0.1328 -0.7780  1.5428
20610SOL    HW263272   4.946   5.020   9.725  0.4794 -1.1855 -0.3640
20611SOL     OW63273   5.627   0.850   2.588 -0.2975 -0.2588 -0.3113
20611SOL    HW163274   5.553   0.901   2.620 -0.2756 -0.7548  0.5496
20611SOL    HW263275   5.675   0.824   2.666  1.9788  1.7627 -0.9289
20612SOL     OW63276   6.033   5.375   4.664 -0.0486  0.2258  0.2276
20612SOL    HW163277   5.984   5.298   4.694 -0.7443 -0.9270 -3.4299
20612SOL    HW263278   6.103   5.339   4.610  1.2684  2.1347  0.5649
20613SOL     OW63279   6.850   7.068   1.130  0.2254 -0.1705  0.3445
20613SOL    HW163280   6.826   7.003   1.064 -0.5868 -0.6981  1.1382
20613SOL    HW263281   6.908   7.023   1.190 -0.1492 -0.1045  0.7653
20614SOL     OW63282   7.888   5.079   3.995 -0.0001  0.0761  0.0261
20614SOL    HW163283   7.928   5.035   4.071 -0.8291 -0.0711  0.3875
20614SOL    HW263284   7.963   5.110   3.944  0.5825  0.3559  1.0050
20615SOL     OW63285   3.297   2.961   5.727  0.0585  0.1453 -0.3316
20615SOL    HW163286   3.230   2.895   5.708  0.7151  0.0391 -2.4859
20615SOL    HW263287   3.364   2.913   5.776 -0.8621 -0.0162  0.8181
20616SOL     OW63288   1.636   6.013  10.707  0.4533  0.3072  0.4901
20616SOL    HW163289   1.721   5.994  10.748 -0.0412 -1.8444  0.6243
20616SOL    HW263290   1.655   6.081  10.642  1.9196  1.1808  1.7876
20617SOL     OW63291   7.715   3.100   7.633  0.1216  0.1080 -0.2197
20617SOL    HW163292   7.712   3.136   7.722 -0.0396 -0.7865  0.1481
20617SOL    HW263293   7.647   3.149   7.586 -1.0194 -0.5897  0.6224
20618SOL     OW63294   6.519   5.275   2.103  0.0778  0.2458  0.1946
20618SOL    HW163295   6.564   5.191   2.105  0.5223  0.3295 -2.4471
20618SOL    HW263296   6.572   5.332   2.159  0.0194 -1.0689  1.6657
20619SOL     OW63297   4.945   7.414   3.070  0.1672 -0.4543  0.0981
20619SOL    HW163298   4.959   7.322   3.048  0.6454 -0.3678  0.0470
20619SOL    HW263299   4.945   7.417   3.166 -0.1917 -0.5558  0.1059
20620SOL     OW63300   5.255   1.291  11.779 -0.1256 -0.4331 -0.2676
20620SOL    HW163301   5.168   1.327  11.761 -0.5850 -2.2266 -1.9526
20620SOL    HW263302   5.306   1.309  11.700  1.2840  1.1077  0.9086
20621SOL     OW63303   7.479   2.752   6.949 -0.3900 -0.1943  0.5760
20621SOL    HW163304   7.550   2.691   6.927 -0.6093 -1.3522  2.8280
20621SOL    HW263305   7.514   2.804   7.021 -1.1333  0.5943  0.3766
20622SOL     OW63306   2.184   4.694  11.747 -0.7444  0.4016  0.0293
20622SOL    HW163307   2.149   4.624  11.692  1.3937  1.3748 -2.8880
20622SOL    HW263308   2.240   4.649  11.811 -0.7854 -0.6645 -0.6629
20623SOL     OW63309   3.008   4.421   2.405  0.0174 -0.7712 -0.1019
20623SOL    HW163310   3.011   4.499   2.460  1.8027  0.0111 -1.2416
20623SOL    HW263311   3.092   4.377   2.420  0.3329 -0.8105 -1.7960
20624SOL     OW63312   0.033   3.031   5.664  0.0238 -0.1247 -0.6867
20624SOL    HW163313   0.040   3.121   5.697  1.3533 -0.4316 -0.0635
20624SOL    HW263314   0.095   2.981   5.717 -1.7756 -1.7508  0.0338
20625SOL     OW63315   0.603   6.303   0.388  0.1868 -0.3487  0.4186
20625SOL    HW163316   0.612   6.235   0.322  0.0586 -0.1837  0.2299
20625SOL    HW263317   0.515   6.293   0.422 -0.6813  1.1413 -1.2094
20626SOL     OW63318   0.863   7.473   9.897  0.3099 -0.4073  0.0696
20626SOL    HW163319   0.837   7.381   9.903 -0.6093 -0.1253  0.6849
20626SOL    HW263320   0.835   7.512   9.980 -3.3548  1.3806 -1.7257
20627SOL     OW63321   7.069   0.069  10.498  0.1919  0.5865 -0.4918
20627SOL    HW163322   7.044  -0.009  10.448  0.0016  0.6163 -0.4420
20627SOL    HW263323   7.023   0.141  10.456 -0.8132  0.4691  0.3703
20628SOL     OW63324   3.069   2.124   1.714  0.7350 -0.1566  0.4604
20628SOL    HW163325   3.100   2.047   1.665  0.5796  1.0923 -1.7193
20628SOL    HW263326   3.089   2.103   1.805  0.1149 -3.0578  0.0527
20629SOL     OW63327   3.349   3.635  12.037  0.2967  0.3633  0.8056
20629SOL    HW163328   3.380   3.558  12.083 -0.3206  0.0765  0.7507
20629SOL    HW263329   3.260   3.648  12.069 -0.1277  0.1800 -0.2587
20630SOL     OW63330   1.040   1.916   3.766  0.0749  0.3467  0.1494
20630SOL    HW163331   0.980   1.923   3.840  1.8308  1.0585  1.5890
20630SOL    HW263332   1.071   2.005   3.752  3.7607 -0.4158  2.1278
20631SOL     OW63333   6.623   0.172   7.179 -0.1040 -0.1571  0.3018
20631SOL    HW163334   6.532   0.144   7.174 -0.8789  1.4677  3.0060
20631SOL    HW263335   6.626   0.254   7.131 -0.7460  1.0700  2.2515
20632SOL     OW63336   1.421   4.354   7.694 -0.0450 -0.7063  0.0014
20632SOL    HW163337   1.379   4.431   7.657 -0.0611 -0.2819  0.8666
20632SOL    HW263338   1.465   4.312   7.620  0.7292  0.6245 -0.3209
20633SOL     OW63339   4.125   1.473  10.495 -0.1865 -0.7613  0.4805
20633SOL    HW163340   4.116   1.385  10.531  0.1679 -0.6183  0.9227
20633SOL    HW263341   4.172   1.522  10.562 -1.9370  0.2516  1.0143
20634SOL     OW63342   1.570   0.400   9.827  0.4060 -0.3751 -0.7203
20634SOL    HW163343   1.545   0.343   9.899 -0.4065  0.2338 -0.5069
20634SOL    HW263344   1.509   0.380   9.757  1.1917 -0.9629 -1.2550
20635SOL     OW63345   7.106   5.472  10.872 -0.8623  0.3288 -0.5228
20635SOL    HW163346   7.129   5.563  10.852 -2.1572  0.6449 -0.6434
20635SOL    HW263347   7.020   5.477  10.915 -0.7609 -0.8057 -0.1428
20636SOL     OW63348   5.102   0.369   4.902 -0.0590  0.4900  0.6825
20636SOL    HW163349   5.036   0.343   4.837 -0.3332  1.5749  0.5179
20636SOL    HW263350   5.186   0.351   4.860 -0.1586 -2.7928  1.6190
20637SOL     OW63351   4.341   0.955   6.519 -1.7137  0.0607  0.1844
20637SOL    HW163352   4.321   1.043   6.487 -1.6411  0.2877  0.7533
20637SOL    HW263353   4.367   0.967   6.610  0.5114 -0.2717 -0.3314
20638SOL     OW63354   0.582   6.978   8.780 -0.1244  0.2764 -0.2109
20638SOL    HW163355   0.673   6.979   8.810  0.0479 -1.6377 -0.5765
20638SOL    HW263356   0.547   6.893   8.809 -2.1927  1.4260  0.9713
20639SOL     OW63357   0.278   2.886   3.336  0.4474 -0.1623  0.1866
20639SOL    HW163358   0.202   2.896   3.278 -1.8448 -0.6321  2.9016
20639SOL    HW263359   0.277   2.964   3.391 -0.5175 -1.8608  2.7920
20640SOL     OW63360   6.628   7.637   4.301  0.2128 -0.0814  0.1891
20640SOL    HW163361   6.677   7.587   4.366 -0.4172 -0.7727  0.1562
20640SOL    HW263362   6.553   7.580   4.279 -1.3600  1.4837  1.2379
20641SOL     OW63363   2.173   0.660  11.154 -0.0500  0.2598 -0.1354
20641SOL    HW163364   2.225   0.582  11.170 -0.0026  0.5702  1.3570
20641SOL    HW263365   2.237   0.728  11.133  0.0377  0.3212  0.3381
20642SOL     OW63366   4.553   1.469  11.646 -0.3929  0.2512  0.6613
20642SOL    HW163367   4.527   1.399  11.586  2.3027  0.6364 -1.1528
20642SOL    HW263368   4.613   1.426  11.708  1.2612  0.8707 -0.4515
20643SOL     OW63369   7.932   4.522   5.590  0.3488 -0.4843  0.0665
20643SOL    HW163370   7.973   4.440   5.564  0.4753 -0.1517 -0.7977
20643SOL    HW263371   8.003   4.586   5.590  0.2292 -0.3436  0.6299
20644SOL     OW63372   1.716   0.917   2.503 -0.0313 -0.3513  0.5127
20644SOL    HW163373   1.790   0.870   2.466  0.2463  0.6222 -0.2141
20644SOL    HW263374   1.659   0.849   2.539 -0.0220 -1.2828 -1.1729
20645SOL     OW63375   4.335   5.407   4.096  1.1620  0.0113 -0.4157
20645SOL    HW163376   4.274   5.481   4.095  1.3981  0.2334  0.6105
20645SOL    HW263377   4.320   5.363   4.012 -0.0385  0.3595 -0.4087
20646SOL     OW63378   2.401   0.354   9.960  0.4114  0.2780  0.1928
20646SOL    HW163379   2.451   0.316  10.032  1.0761  0.9918  0.1166
20646SOL    HW263380   2.462   0.357   9.886 -0.4007 -0.8937 -0.5666
20647SOL     OW63381   5.657   2.227   8.941 -0.1903  0.2234  0.3375
20647SOL    HW163382   5.672   2.261   9.030  1.3940  1.1236 -0.2292
20647SOL    HW263383   5.589   2.285   8.905  3.7208  4.3658 -1.2588
20648SOL     OW63384   2.823   2.103   3.669 -0.2656  0.2368  0.1331
20648SOL    HW163385   2.872   2.146   3.740  0.7305  1.1553 -1.0460
20648SOL    HW263386   2.885   2.040   3.633 -0.8625 -0.4214  0.2583
20649SOL     OW63387   2.273   2.936   9.806 -0.4382  0.6442 -0.2176
20649SOL    HW163388   2.331   2.920   9.732  0.2408 -0.7972  0.5794
20649SOL    HW263389   2.319   3.002   9.859 -0.4105  0.8589 -0.5078
20650SOL     OW63390   0.051   0.273   0.871 -0.0480 -0.7997 -0.1022
20650SOL    HW163391   0.073   0.299   0.960 -1.1024  0.0244 -0.0633
20650SOL    HW263392   0.033   0.356   0.826  0.3416 -1.2158 -1.0487
20651SOL     OW63393   3.745   2.177   7.949 -0.2489  0.2129  0.5098
20651SOL    HW163394   3.781   2.171   8.038 -0.3177  1.5401  0.6571
20651SOL    HW263395   3.764   2.267   7.922 -1.2917  0.1916 -0.3606
20652SOL     OW63396   7.118   2.797   3.647 -0.4348 -0.1892 -0.2245
20652SOL    HW163397   7.127   2.721   3.704 -2.6542  0.3276  0.9305
20652SOL    HW263398   7.111   2.760   3.559 -0.2749 -1.2329  0.1851
20653SOL     OW63399   7.882   2.387   3.979 -0.1338 -0.3239 -0.1627
20653SOL    HW163400   7.919   2.307   3.940  0.5341 -0.2043  0.2046
20653SOL    HW263401   7.940   2.406   4.052  0.4339  1.1729 -0.9513
20654SOL     OW63402   2.539   3.484   3.443  0.1449 -0.1420 -0.3962
20654SOL    HW163403   2.488   3.559   3.473 -0.3563  0.6791 -3.0652
20654SOL    HW263404   2.510   3.411   3.499 -1.2449  1.0888  0.5579
20655SOL     OW63405   1.034   2.425   5.429  0.6728  0.2535 -0.6142
20655SOL    HW163406   0.957   2.475   5.456  0.5075 -0.2584 -0.1170
20655SOL    HW263407   1.080   2.406   5.511  1.9927  1.5868 -0.9851
20656SOL     OW63408   0.148   5.308   8.872  0.5369 -0.3786  0.1027
20656SOL    HW163409   0.164   5.220   8.839  0.5463 -0.7539  1.0701
20656SOL    HW263410   0.150   5.364   8.794  0.5846 -1.2214 -0.5121
20657SOL     OW63411   0.788   5.690   7.920  0.2873  0.3507  0.2371
20657SOL    HW163412   0.797   5.661   7.829 -2.7566  2.1863 -0.7924
20657SOL    HW263413   0.818   5.615   7.972  1.4878 -1.0145 -2.2291
20658SOL     OW63414   0.824   0.673   8.180 -0.1644  0.2636 -0.3498
20658SOL    HW163415   0.802   0.597   8.127  0.8660 -0.2396 -0.0733
20658SOL    HW263416   0.916   0.660   8.204 -0.7676  0.1189  2.1491
20659SOL     OW63417   4.958   7.383   3.342 -0.5514  0.4163  0.6710
20659SOL    HW163418   4.958   7.297   3.383  2.8151 -1.5983 -2.8863
20659SOL    HW263419   5.032   7.429   3.383 -0.2493  0.3030  0.2541
20660SOL     OW63420   0.611   1.963  10.794 -0.3643 -0.2070  0.7121
20660SOL    HW163421   0.617   2.017  10.873 -1.5964 -1.4634  1.7280
20660SOL    HW263422   0.546   2.007  10.739 -1.7242 -0.8617  1.7454
20661SOL     OW63423   6.388   6.223  11.509  0.0561  0.3473  0.6937
20661SOL    HW163424   6.384   6.309  11.468  0.3715 -0.4687 -1.1193
20661SOL    HW263425   6.464   6.227  11.567  0.6189  1.0007 -0.0804
20662SOL     OW63426   2.544   3.812   3.566  0.1148  0.2994 -0.2667
20662SOL    HW163427   2.477   3.843   3.627 -0.1387  2.1456 -1.4073
20662SOL    HW263428   2.550   3.881   3.500  0.0948 -1.7781 -2.5804
20663SOL     OW63429   2.781   6.089   7.128 -0.4842 -0.5415  0.1929
20663SOL    HW163430   2.734   6.084   7.212 -1.0762 -0.8093 -0.1457
20663SOL    HW263431   2.774   6.182   7.104 -0.1911 -0.4352  0.5043
20664SOL     OW63432   7.420   3.252   9.828 -0.3133  0.3863 -0.2455
20664SOL    HW163433   7.340   3.199   9.825  0.6617 -1.3204  1.2851
20664SOL    HW263434   7.488   3.194   9.792  0.7411  0.6582  1.2150
20665SOL     OW63435   6.989   3.244  11.957  0.0411  0.1230  0.2627
20665SOL    HW163436   6.992   3.174  12.022  0.3148  0.0645  0.1865
20665SOL    HW263437   7.081   3.261  11.936  0.2810  2.8270  2.8052
20666SOL     OW63438   2.461   6.047   8.303 -0.0641  0.3873  0.0381
20666SOL    HW163439   2.533   6.044   8.241 -0.1011  1.7281 -0.0981
20666SOL    HW263440   2.430   5.957   8.308  3.7966 -1.0651  2.7489
20667SOL     OW63441   2.064   1.893  10.519 -0.6937  0.3997 -0.1333
20667SOL    HW163442   2.089   1.966  10.462  0.0116  0.6758  0.5135
20667SOL    HW263443   2.123   1.821  10.494 -0.9888  0.2377 -0.3654
20668SOL     OW63444   1.893   6.432   0.432 -0.5999 -0.3714  0.0094
20668SOL    HW163445   1.954   6.385   0.376 -2.0132 -0.5057 -1.4907
20668SOL    HW263446   1.948   6.469   0.501  1.0415 -1.1830 -0.7959
20669SOL     OW63447   4.638   7.778  11.196  0.3689  0.0516 -0.8582
20669SOL    HW163448   4.688   7.784  11.277 -0.5546  0.4390 -0.3048
20669SOL    HW263449   4.603   7.865  11.182 -0.2816 -0.2481 -1.1479
20670SOL     OW63450   5.263   3.463  10.231 -0.1086  0.1001  0.3376
20670SOL    HW163451   5.261   3.371  10.258 -0.9875 -0.5062 -1.5818
20670SOL    HW263452   5.236   3.461  10.139 -2.8866  2.5446  0.9656
20671SOL     OW63453   0.177   6.903   4.556 -0.6970 -0.2292 -0.3204
20671SOL    HW163454   0.234   6.937   4.487  1.1010  1.7685  1.9702
20671SOL    HW263455   0.103   6.963   4.557  0.9282  1.8911  1.6050
20672SOL     OW63456   7.034   5.747   3.931  0.2349 -0.0832 -0.5046
20672SOL    HW163457   7.069   5.834   3.946 -1.7209  0.4784  1.3075
20672SOL    HW263458   6.942   5.753   3.957  0.5702 -3.2251  2.1081
20673SOL     OW63459   2.666   6.174   8.163 -0.1014  0.0259  0.2201
20673SOL    HW163460   2.754   6.197   8.192 -0.2560 -0.2500  0.9403
20673SOL    HW263461   2.678   6.097   8.108  0.1057 -0.0342  0.3489
20674SOL     OW63462   5.529   7.357   0.939  0.1804  0.0056  0.9256
20674SOL    HW163463   5.455   7.349   0.880  0.8178 -0.6489  0.1911
20674SOL    HW263464   5.506   7.430   0.997 -0.9138 -0.0296  0.5522
20675SOL     OW63465   3.924   4.575   4.438  0.3306 -0.4928  0.4465
20675SOL    HW163466   3.878   4.647   4.480  1.0329 -1.2930  2.7359
20675SOL    HW263467   3.856   4.509   4.423 -0.0689  0.1073 -0.4160
20676SOL     OW63468   1.416   3.334   0.480  0.2160 -0.1602 -0.4893
20676SOL    HW163469   1.429   3.429   0.487 -3.1772  0.4209 -0.0992
20676SOL    HW263470   1.379   3.309   0.565  0.8806 -1.8418 -0.6554
20677SOL     OW63471   4.903   5.332   1.013  0.3124  0.4311  0.2572
20677SOL    HW163472   4.997   5.315   1.010  0.6272  1.5612  2.0205
20677SOL    HW263473   4.869   5.295   0.932  2.3231  0.2872 -0.5783
20678SOL     OW63474   2.329   7.922   5.491  0.2022  0.5523 -0.0555
20678SOL    HW163475   2.253   7.932   5.549 -0.0690  1.0464 -0.4846
20678SOL    HW263476   2.305   7.850   5.432  0.5378 -0.0470  0.5323
20679SOL     OW63477   0.166   0.974   3.075  0.6189  0.1201 -0.0478
20679SOL    HW163478   0.260   0.965   3.059  0.3989 -2.3307 -0.3815
20679SOL    HW263479   0.157   0.967   3.170  0.8962  2.5622  0.2229
20680SOL     OW63480   4.724   6.134   1.462  0.4613  0.5059 -0.1908
20680SOL    HW163481   4.740   6.059   1.520 -0.1965  0.7646  0.3479
20680SOL    HW263482   4.668   6.191   1.514  2.3117  2.1830  0.0604
20681SOL     OW63483   3.797   5.210   6.370  0.1573 -0.3341 -0.1680
20681SOL    HW163484   3.766   5.297   6.395  3.5622  0.6151  1.2684
20681SOL    HW263485   3.803   5.161   6.452 -0.5603 -1.5494 -0.8075
20682SOL     OW63486   1.116   4.506   0.145  0.2883 -0.0571 -0.0856
20682SOL    HW163487   1.033   4.535   0.108 -0.1260 -0.1091  0.7979
20682SOL    HW263488   1.153   4.584   0.186  1.2428  0.2588 -1.4565
20683SOL     OW63489   4.364   3.189   4.141  0.2284 -0.5886  0.2519
20683SOL    HW163490   4.312   3.115   4.111  1.2551 -0.6917 -1.3639
20683SOL    HW263491   4.426   3.206   4.070 -0.0459  1.8940  0.5068
20684SOL     OW63492   0.244   2.981   6.894  0.1860 -0.4459 -0.0663
20684SOL    HW163493   0.337   3.002   6.894 -0.1163  1.0187 -0.2185
20684SOL    HW263494   0.219   2.984   6.987  0.3042 -0.9825 -0.0114
20685SOL     OW63495   7.420   2.161  11.512 -0.1405  0.3162 -0.0382
20685SOL    HW163496   7.362   2.119  11.576 -1.6994  3.1521  0.6044
20685SOL    HW263497   7.372   2.155  11.429  0.0210  0.1014 -0.1160
20686SOL     OW63498   6.747   4.073   2.947  0.0505 -0.6712 -0.5674
20686SOL    HW163499   6.785   4.043   2.864 -0.8571 -1.8462 -0.5859
20686SOL    HW263500   6.819   4.116   2.992  1.0190 -1.5678 -1.2127
20687SOL     OW63501   0.140   3.735  12.216 -0.1430 -0.4327  0.3160
20687SOL    HW163502   0.077   3.765  12.150 -0.5702 -1.1886  0.3717
20687SOL    HW263503   0.091   3.675  12.271  0.2116  0.1759  1.3355
20688SOL     OW63504   0.825   3.799   7.476 -0.2192 -0.1780 -0.1634
20688SOL    HW163505   0.836   3.894   7.475  1.6101 -0.3391 -1.9304
20688SOL    HW263506   0.887   3.768   7.542 -0.8772 -0.1633  0.4746
20689SOL     OW63507   0.398   1.693   1.826  0.8574 -0.4791  0.1733
20689SOL    HW163508   0.339   1.708   1.900  1.2334 -1.2450  0.6394
20689SOL    HW263509   0.340   1.678   1.751  0.4163 -2.1471  0.8090
20690SOL     OW63510   5.496   5.247   1.654 -0.5565  0.4185  0.2503
20690SOL    HW163511   5.473   5.284   1.740  1.4032  1.9305  0.2044
20690SOL    HW263512   5.442   5.297   1.592  0.6885  1.9485  0.3502
20691SOL     OW63513   7.044   4.970  11.000 -0.2056  0.0438 -0.2397
20691SOL    HW163514   7.012   4.894  10.951  0.3756 -1.4434  1.5567
20691SOL    HW263515   7.139   4.962  10.996 -0.1108  1.2441 -0.8097
20692SOL     OW63516   2.368   7.020   4.866  0.3601 -0.1961 -0.1747
20692SOL    HW163517   2.351   7.081   4.795  3.1998  0.1569 -0.6890
20692SOL    HW263518   2.297   7.034   4.928 -1.6606  0.1916 -2.4326
20693SOL     OW63519   6.133   1.595  10.733 -0.2932  0.1824  0.4310
20693SOL    HW163520   6.106   1.625  10.646  1.6788 -0.2178 -0.3635
20693SOL    HW263521   6.124   1.673  10.788  1.8786  1.5038 -0.9415
20694SOL     OW63522   7.531   5.579  10.248 -0.0077 -0.3359  0.1657
20694SOL    HW163523   7.554   5.607  10.159 -2.6564  0.5061 -0.3251
20694SOL    HW263524   7.449   5.531  10.238  0.0948 -0.9983  2.0855
20695SOL     OW63525   2.859   4.810   2.427 -0.7322  0.8802 -0.1256
20695SOL    HW163526   2.917   4.883   2.405 -0.1035 -0.1835 -2.2482
20695SOL    HW263527   2.918   4.742   2.462 -1.0928  0.7738  0.2941
20696SOL     OW63528   2.369   6.230   1.658 -0.4288  0.1742  0.0714
20696SOL    HW163529   2.283   6.206   1.691 -0.6350 -0.5138 -0.8917
20696SOL    HW263530   2.380   6.176   1.579  0.5773  0.7740 -0.2236
20697SOL     OW63531   2.769   6.745   7.476 -0.0009  0.1466 -0.0161
20697SOL    HW163532   2.704   6.679   7.451  1.2392 -0.9671 -0.3639
20697SOL    HW263533   2.801   6.780   7.393  0.9799 -0.4419  0.1066
20698SOL     OW63534   0.891   6.502   1.768 -0.0167  0.1145 -0.0606
20698SOL    HW163535   0.872   6.471   1.856  0.4331 -1.4884 -0.4852
20698SOL    HW263536   0.968   6.557   1.777  1.3205 -1.7178  0.3177
20699SOL     OW63537   6.950   1.313   3.601  0.4420 -0.1355  0.5179
20699SOL    HW163538   6.877   1.373   3.586 -0.7170 -1.2647  1.3517
20699SOL    HW263539   7.025   1.354   3.558 -0.4158  1.6371  0.6293
20700SOL     OW63540   5.330   4.316   1.578  0.6382  0.0052  0.4145
20700SOL    HW163541   5.309   4.256   1.650 -0.6168 -0.6841 -0.4705
20700SOL    HW263542   5.247   4.358   1.557  0.9937  0.2458 -0.5755
20701SOL     OW63543   6.124   1.533   9.368  0.3012 -0.0027  0.9313
20701SOL    HW163544   6.075   1.475   9.310 -1.1424  1.6659  0.3918
20701SOL    HW263545   6.199   1.561   9.316 -0.1534  0.2852  0.4317
20702SOL     OW63546   2.498   5.850   2.290  0.1025 -0.0774 -0.3584
20702SOL    HW163547   2.558   5.801   2.346 -0.3655 -0.7346 -0.4286
20702SOL    HW263548   2.443   5.900   2.351 -1.2581 -1.7664 -0.1415
20703SOL     OW63549   4.139   1.489   8.226 -0.1995  0.1896 -0.0390
20703SOL    HW163550   4.223   1.450   8.251 -0.8269 -1.0921  0.1549
20703SOL    HW263551   4.158   1.538   8.146  0.4451 -1.3149 -0.8397
20704SOL     OW63552   6.515   3.246   8.323 -0.7055  0.2088 -0.4497
20704SOL    HW163553   6.595   3.193   8.324 -1.3437 -0.8106 -1.2888
20704SOL    HW263554   6.535   3.318   8.263 -0.7913 -0.6963 -1.6043
20705SOL     OW63555   5.988   0.156   0.936 -0.8773 -0.2576  0.0893
20705SOL    HW163556   6.040   0.080   0.960 -3.5911 -1.9050  1.1920
20705SOL    HW263557   5.958   0.192   1.019 -1.2123  0.8567 -0.4941
20706SOL     OW63558   1.899   2.723  11.429 -0.1894 -0.3925 -0.0966
20706SOL    HW163559   1.856   2.713  11.344  0.6520 -0.1567 -0.5539
20706SOL    HW263560   1.921   2.816  11.434  1.3050 -0.7076 -0.3869
20707SOL     OW63561   4.274   7.096   9.058  0.1049  0.2466  0.3595
20707SOL    HW163562   4.282   7.006   9.026  0.9210  0.6240 -0.5224
20707SOL    HW263563   4.248   7.147   8.981  1.2892  1.0349  0.4667
20708SOL     OW63564   2.335   4.525   5.959  0.4687 -0.0152 -0.0634
20708SOL    HW163565   2.331   4.462   6.032  2.4661 -1.4369 -1.0732
20708SOL    HW263566   2.297   4.478   5.885  0.3964  0.6269 -0.4385
20709SOL     OW63567   1.378   7.841   6.314 -0.5016 -0.0708  0.0658
20709SOL    HW163568   1.446   7.897   6.351 -1.2050 -1.2828  3.7143
20709SOL    HW263569   1.364   7.874   6.226  2.4365  2.3247  0.3271
20710SOL     OW63570   2.192   0.649  11.481 -0.2382  0.0090 -0.3996
20710SOL    HW163571   2.159   0.573  11.529 -0.1708  1.2423  1.7199
20710SOL    HW263572   2.131   0.660  11.409 -1.8027 -0.5063  0.7848
20711SOL     OW63573   5.746   7.371   0.693 -0.6457 -0.2362  0.3532
20711SOL    HW163574   5.786   7.296   0.737  2.2333  1.6746  1.2885
20711SOL    HW263575   5.673   7.396   0.750  0.1703 -0.6005  1.6099
20712SOL     OW63576   6.782   6.683   7.737  0.3457  0.0796  0.1034
20712SOL    HW163577   6.867   6.725   7.720  0.5681 -1.0503 -1.8924
20712SOL    HW263578   6.803   6.610   7.795  1.0886 -1.1398 -1.5785
20713SOL     OW63579   4.024   3.708  12.156  0.7143  0.1780 -0.1410
20713SOL    HW163580   4.051   3.743  12.240  1.3092 -0.4906 -0.0534
20713SOL    HW263581   4.089   3.642  12.134  0.1364 -0.2094 -0.7558
20714SOL     OW63582   6.037   7.958   1.357 -0.3786  0.1806  0.2947
20714SOL    HW163583   6.044   7.868   1.389  1.3432 -0.2306 -1.0799
20714SOL    HW263584   6.107   7.966   1.293 -0.5536  2.4961  0.3141
20715SOL     OW63585   6.213   4.568   3.680  0.4187  0.4370 -0.2304
20715SOL    HW163586   6.196   4.563   3.586 -1.6711 -0.7845  0.1461
20715SOL    HW263587   6.130   4.595   3.718  1.6390  2.4996  1.1949
20716SOL     OW63588   1.594   1.863   1.817 -0.4189 -0.7511  0.1290
20716SOL    HW163589   1.632   1.775   1.822 -1.1255 -1.0201  1.7052
20716SOL    HW263590   1.504   1.852   1.850 -0.0948  0.7614  1.6705
20717SOL     OW63591   7.341   3.247   9.169 -0.2495  0.2293 -0.4116
20717SOL    HW163592   7.348   3.223   9.261  1.5378  0.5880 -0.4027
20717SOL    HW263593   7.247   3.252   9.151 -0.6169 -0.0015  1.3407
20718SOL     OW63594   2.712   6.135   1.202 -0.2592  0.2740  0.1716
20718SOL    HW163595   2.804   6.154   1.219 -0.0160 -0.4674 -0.2614
20718SOL    HW263596   2.706   6.131   1.107 -0.8113  0.6445  0.1886
20719SOL     OW63597   6.566   3.276  11.772  0.0401  0.3996 -0.4502
20719SOL    HW163598   6.486   3.326  11.759 -1.1933 -1.1619  0.7772
20719SOL    HW263599   6.589   3.292  11.864  0.8571  0.4141 -0.6528
20720SOL     OW63600   1.969   1.018  10.259 -0.6324 -0.5175  0.0991
20720SOL    HW163601   2.005   0.942  10.304  1.2207 -0.1795 -0.6939
20720SOL    HW263602   1.918   0.982  10.187  0.4707 -1.0396 -0.4465
20721SOL     OW63603   3.708   4.186   7.110  0.1436  0.1530 -0.4222
20721SOL    HW163604   3.722   4.189   7.015 -0.9791 -1.3696 -0.6620
20721SOL    HW263605   3.630   4.132   7.121  0.7132 -0.3469  1.4183
20722SOL     OW63606   0.346   7.598   7.889  0.0520 -0.3188  0.0865
20722SOL    HW163607   0.428   7.609   7.840 -1.1638  0.5947 -1.8913
20722SOL    HW263608   0.374   7.573   7.977  2.5300  1.6363 -0.0220
20723SOL     OW63609   7.012   7.765   3.479 -0.6725  0.5843  0.1475
20723SOL    HW163610   7.066   7.741   3.404  0.3553  2.1100  0.3600
20723SOL    HW263611   7.031   7.699   3.545  0.2873  0.6183 -0.0855
20724SOL     OW63612   6.522   7.787  12.123  0.6140 -0.7499  0.6891
20724SOL    HW163613   6.432   7.804  12.150  1.4674  0.5011  2.9818
20724SOL    HW263614   6.528   7.692  12.117 -0.6083 -0.8910  1.4321
20725SOL     OW63615   0.356   0.814   0.527  0.4617  0.0152 -0.5626
20725SOL    HW163616   0.350   0.776   0.615  2.1218  1.2271  0.1280
20725SOL    HW263617   0.375   0.740   0.470 -2.7407 -1.1625 -0.3286
20726SOL     OW63618   1.673   2.162   2.171 -0.1615  0.4560  0.2171
20726SOL    HW163619   1.760   2.148   2.207 -0.3376  1.3041  0.9904
20726SOL    HW263620   1.616   2.104   2.221 -0.0116 -0.3363 -0.5013
20727SOL     OW63621   6.552   6.624   6.176  0.0928  0.0331  0.4615
20727SOL    HW163622   6.636   6.660   6.148 -0.6655  0.7985 -0.9619
20727SOL    HW263623   6.488   6.689   6.147 -1.0009 -0.5247  1.5383
20728SOL     OW63624   2.543   6.395   5.801  0.6816  0.2196  0.7369
20728SOL    HW163625   2.464   6.425   5.756  1.2668 -1.2250 -1.3977
20728SOL    HW263626   2.573   6.472   5.851 -0.9189  1.4083 -0.0521
20729SOL     OW63627   5.995   5.107   5.487 -0.0438  0.3130 -0.2974
20729SOL    HW163628   6.074   5.056   5.466 -0.2451  0.1855 -0.7757
20729SOL    HW263629   6.018   5.156   5.566 -0.1499 -1.2337  0.7397
20730SOL     OW63630   3.964   2.062  11.389  0.5615 -0.0943  0.2181
20730SOL    HW163631   3.878   2.035  11.422  1.2873  0.8269  3.1181
20730SOL    HW263632   3.952   2.152  11.361  0.3610 -0.2964 -0.3570
20731SOL     OW63633   0.529   2.908  10.478  0.2689 -0.2699 -0.6015
20731SOL    HW163634   0.545   2.836  10.417  0.0661 -1.5074  0.7563
20731SOL    HW263635   0.587   2.891  10.552 -0.6774  0.2853  0.2921
20732SOL     OW63636   1.799   7.529  12.357 -0.2377  0.4140  0.0378
20732SOL    HW163637   1.713   7.549  12.394 -0.2368  1.8134 -0.6473
20732SOL    HW263638   1.829   7.612  12.321  0.7385 -0.4026 -1.0975
20733SOL     OW63639   1.878   6.500  10.269 -0.1552 -0.3024  0.5161
20733SOL    HW163640   1.897   6.528  10.359 -0.2240 -1.1038  0.7880
20733SOL    HW263641   1.792   6.539  10.250  0.4214  0.9186  0.3280
20734SOL     OW63642   7.917   7.866   7.075  0.4266 -0.4554  0.2250
20734SOL    HW163643   8.006   7.830   7.083  0.4622 -0.3765  0.1790
20734SOL    HW263644   7.924   7.954   7.111  0.8581  0.3504 -1.7167
20735SOL     OW63645   7.350   7.691   3.118  0.2793 -0.0820  0.0737
20735SOL    HW163646   7.297   7.683   3.038  0.0864 -0.1691  0.2084
20735SOL    HW263647   7.392   7.776   3.111 -0.8202  0.5170  0.5316
20736SOL     OW63648   0.443   1.266  10.990  0.0377 -0.4673  0.4414
20736SOL    HW163649   0.403   1.353  10.986  0.7645 -0.0454  1.6447
20736SOL    HW263650   0.377   1.210  11.029 -0.7529 -0.6833 -1.1286
20737SOL     OW63651   0.704   6.455   3.130 -0.8012 -0.1168 -0.0513
20737SOL    HW163652   0.741   6.433   3.215 -0.7942 -2.3616 -0.5783
20737SOL    HW263653   0.760   6.410   3.067 -0.2834  2.1941 -1.3499
20738SOL     OW63654   3.357   2.376  10.234 -0.7353  0.3023 -0.4170
20738SOL    HW163655   3.412   2.332  10.300  0.9999  0.6156 -1.5852
20738SOL    HW263656   3.415   2.441  10.194 -1.5283 -0.3209 -2.7134
20739SOL     OW63657   5.123   7.755  10.232 -0.3500  0.8382 -0.7674
20739SOL    HW163658   5.163   7.692  10.172 -0.1877  1.8503 -1.7409
20739SOL    HW263659   5.044   7.711  10.263  1.3644 -1.1846  1.1536
20740SOL     OW63660   6.138   5.227   9.769 -0.1958 -0.2664  0.3997
20740SOL    HW163661   6.231   5.213   9.788  0.4994  1.8498 -1.1273
20740SOL    HW263662   6.110   5.290   9.835 -0.1575  0.1628  0.0115
20741SOL     OW63663   6.150   5.471   9.969 -0.1678  0.1969 -0.2133
20741SOL    HW163664   6.245   5.465   9.978  0.0199  2.2010 -0.4590
20741SOL    HW263665   6.117   5.460  10.058  0.3536  0.3661  0.0069
20742SOL     OW63666   2.950   3.243   0.180  0.2791 -0.7009 -0.3014
20742SOL    HW163667   3.039   3.242   0.145  0.1307 -2.4181 -0.6950
20742SOL    HW263668   2.961   3.267   0.272  1.2468 -1.6865 -0.1392
20743SOL     OW63669   5.193   4.179   7.787  0.1973 -0.1470 -0.1673
20743SOL    HW163670   5.243   4.114   7.837  0.4526  0.0777 -0.1287
20743SOL    HW263671   5.210   4.262   7.832 -2.2580 -0.3955  1.4634
20744SOL     OW63672   5.885   5.159  10.383 -0.1548  0.5952  0.1471
20744SOL    HW163673   5.934   5.223  10.436  0.6534  0.6667 -0.6604
20744SOL    HW263674   5.921   5.169  10.295 -1.5961  0.5975 -0.4676
20745SOL     OW63675   4.390   2.188   9.001 -0.2832  0.7266  0.5443
20745SOL    HW163676   4.421   2.122   8.938  0.2146  1.5768 -0.1280
20745SOL    HW263677   4.297   2.199   8.979 -0.1545  0.8930  0.0546
20746SOL     OW63678   2.600   3.850  12.168 -0.2201  0.2167 -0.4260
20746SOL    HW163679   2.687   3.885  12.185  0.1325 -0.7051 -0.3049
20746SOL    HW263680   2.541   3.923  12.190  0.5583  1.3113 -1.7791
20747SOL     OW63681   5.659   7.211   6.508 -0.8846  0.1432 -0.6423
20747SOL    HW163682   5.614   7.152   6.448 -1.4687  0.0039 -0.0797
20747SOL    HW263683   5.719   7.155   6.557 -1.9051 -0.1234  0.3476
20748SOL     OW63684   1.309   1.947  10.988 -0.0748 -0.4568  0.1324
20748SOL    HW163685   1.351   1.939  11.074 -3.1820  1.1158  2.0054
20748SOL    HW263686   1.241   1.880  10.989 -1.8414  1.2331  0.1092
20749SOL     OW63687   0.457   6.246   8.180  0.3082 -0.3449 -0.6674
20749SOL    HW163688   0.508   6.165   8.180  0.1894 -0.4452  0.5295
20749SOL    HW263689   0.503   6.304   8.120 -0.1077 -1.5833 -2.2530
20750SOL     OW63690   2.280   4.539   3.076 -0.1450  0.0604 -0.3689
20750SOL    HW163691   2.239   4.597   3.012 -0.6919  0.0841 -0.0067
20750SOL    HW263692   2.356   4.503   3.031  1.2812  2.4182 -0.0559
20751SOL     OW63693   5.781   2.313   6.283  0.0440  0.1514 -0.0390
20751SOL    HW163694   5.854   2.304   6.223  1.6569 -1.7602  2.0222
20751SOL    HW263695   5.703   2.314   6.227  1.4564 -1.1236 -2.1609
20752SOL     OW63696   6.341   7.625   6.635 -0.1867  0.1139  0.2582
20752SOL    HW163697   6.316   7.718   6.635 -1.0961 -0.1109  0.9343
20752SOL    HW263698   6.282   7.584   6.572  0.2567 -0.0039 -0.0868
20753SOL     OW63699   6.018   5.383  11.745  0.0881 -0.3338 -0.1867
20753SOL    HW163700   6.097   5.346  11.785  0.1755  0.8048  0.7741
20753SOL    HW263701   6.049   5.425  11.665 -0.0326 -2.3454 -1.3363
20754SOL     OW63702   5.774   4.879   8.895 -0.4162 -0.0294 -0.6570
20754SOL    HW163703   5.778   4.908   8.804  0.4123  0.4608 -0.4742
20754SOL    HW263704   5.865   4.865   8.920 -0.2973  2.8646  1.0206
20755SOL     OW63705   3.416   5.326   5.758  0.4400  0.0674  0.0854
20755SOL    HW163706   3.375   5.287   5.835  0.3174 -0.8567 -0.4274
20755SOL    HW263707   3.344   5.334   5.695  0.7425 -0.1552 -0.2910
20756SOL     OW63708   6.014   0.641   2.759  0.1453 -0.1346 -0.1590
20756SOL    HW163709   6.073   0.650   2.833 -0.4031 -0.9828  0.3909
20756SOL    HW263710   6.039   0.712   2.700  0.1080  1.0163  1.1588
20757SOL     OW63711   5.781   1.579   2.066  0.3882 -0.5139  0.7407
20757SOL    HW163712   5.720   1.505   2.062  0.6852 -0.7476  0.3691
20757SOL    HW263713   5.738   1.643   2.122  0.1810 -1.0240  1.1697
20758SOL     OW63714   2.169   0.102   0.380 -0.2781 -0.0112 -0.4044
20758SOL    HW163715   2.220   0.047   0.320 -0.4885 -0.1560 -0.4490
20758SOL    HW263716   2.168   0.053   0.462 -0.9279 -0.3315 -0.6003
20759SOL     OW63717   1.181   3.980  11.993  0.3803  0.3513 -1.1393
20759SOL    HW163718   1.092   3.973  12.028 -0.3481  2.4180 -2.3945
20759SOL    HW263719   1.227   3.904  12.029 -1.9896 -1.0149 -0.7787
20760SOL     OW63720   7.505   2.219  12.377  0.1387 -0.1109 -0.1410
20760SOL    HW163721   7.558   2.148  12.343 -0.3225  0.1224 -1.4316
20760SOL    HW263722   7.425   2.177  12.407 -0.0195 -0.1874 -0.6492
20761SOL     OW63723   5.070   3.149   5.256  0.1787 -0.3530  0.1545
20761SOL    HW163724   5.109   3.178   5.339 -1.1978 -1.8010  1.3757
20761SOL    HW263725   5.122   3.193   5.188 -0.3779  3.1048  1.7633
20762SOL     OW63726   2.701   2.453  11.906  0.2303 -0.0698  0.5478
20762SOL    HW163727   2.740   2.514  11.843  1.4945  1.0566  2.3169
20762SOL    HW263728   2.636   2.505  11.953 -2.3344 -1.4883 -1.2085
20763SOL     OW63729   6.692   1.331   9.753 -0.3625  0.5022 -0.6320
20763SOL    HW163730   6.680   1.325   9.658 -1.0109  1.5853 -0.6451
20763SOL    HW263731   6.610   1.370   9.784 -0.6274 -0.8892  0.5225
20764SOL     OW63732   5.884   4.123   8.808  0.0224 -0.4373  0.3950
20764SOL    HW163733   5.894   4.091   8.719  0.3406 -1.5635  0.8136
20764SOL    HW263734   5.894   4.218   8.801  0.1899 -0.5233 -0.7372
20765SOL     OW63735   2.844   4.176   8.037 -0.2916 -0.0272 -0.1777
20765SOL    HW163736   2.866   4.090   8.072  3.4147  1.1842  0.9353
20765SOL    HW263737   2.860   4.169   7.943 -2.9784 -1.2535 -0.6356
20766SOL     OW63738   0.542   6.166   4.516  0.2328  0.1525  0.0423
20766SOL    HW163739   0.548   6.141   4.423 -0.7693 -1.1676  0.2952
20766SOL    HW263740   0.465   6.119   4.548  1.3025 -0.4635  1.8658
20767SOL     OW63741   0.610   4.273  10.099 -0.2149  0.0285  0.0083
20767SOL    HW163742   0.638   4.343  10.158 -0.2491 -1.1281  1.4522
20767SOL    HW263743   0.534   4.234  10.143 -0.9430 -0.1473 -1.3664
20768SOL     OW63744   5.509   4.618   2.769 -0.2499 -0.3012 -0.3183
20768SOL    HW163745   5.429   4.657   2.805 -0.4917  0.7355 -1.8558
20768SOL    HW263746   5.480   4.534   2.732 -0.5179 -0.2048 -0.3345
20769SOL     OW63747   5.798   1.880   2.681 -0.9052 -0.9260 -0.1008
20769SOL    HW163748   5.821   1.814   2.748 -0.4366 -0.7120 -0.0441
20769SOL    HW263749   5.822   1.963   2.721  1.9550 -0.9448 -1.5204
20770SOL     OW63750   7.344   3.316  11.443 -0.1195 -0.2399  0.1466
20770SOL    HW163751   7.355   3.310  11.349 -0.9591  2.6563 -0.2110
20770SOL    HW263752   7.269   3.259  11.462 -0.1332 -0.6070 -0.9402
20771SOL     OW63753   3.859   6.324   8.290  0.3984 -0.1707 -0.0872
20771SOL    HW163754   3.767   6.350   8.286  0.4797 -0.0737 -2.3690
20771SOL    HW263755   3.902   6.395   8.338 -0.4556  0.6070 -0.4535
20772SOL     OW63756   6.218   4.529  10.811 -0.1275  0.3850 -0.2355
20772SOL    HW163757   6.130   4.493  10.800  0.0537  0.0767 -0.6789
20772SOL    HW263758   6.223   4.601  10.749 -1.3522  2.8450  2.3234
20773SOL     OW63759   2.906   1.156   7.728 -0.4919  0.4192 -0.0426
20773SOL    HW163760   2.855   1.086   7.688 -0.2826  1.2166 -1.7535
20773SOL    HW263761   2.976   1.110   7.775 -0.9545 -0.5570 -0.2845
20774SOL     OW63762   4.635   2.420   9.430  0.8821  0.4018  0.1488
20774SOL    HW163763   4.697   2.421   9.357  1.5758 -1.7232  0.6429
20774SOL    HW263764   4.552   2.447   9.390  1.6002  0.9490 -1.0498
20775SOL     OW63765   4.042   7.962   5.662 -0.2322  0.9208 -0.1488
20775SOL    HW163766   4.013   7.901   5.594 -0.9977  1.4051 -0.2714
20775SOL    HW263767   4.032   7.914   5.744  0.7718  0.3032 -0.3749
20776SOL     OW63768   4.757   5.892   2.017 -0.2990 -0.2983  0.0840
20776SOL    HW163769   4.804   5.841   1.951  1.5839 -1.6633  2.3359
20776SOL    HW263770   4.741   5.831   2.089 -1.1873  1.4172  1.4253
20777SOL     OW63771   0.034   2.531   0.120 -0.3006  0.1433  0.0779
20777SOL    HW163772   0.100   2.550   0.054 -0.3364  2.7548  0.6775
20777SOL    HW263773  -0.049   2.557   0.079 -0.1637  3.5030  1.5723
20778SOL     OW63774   3.497   0.932   9.421 -0.6639  0.7041  0.1317
20778SOL    HW163775   3.509   0.944   9.327 -0.9158 -1.4164 -0.2329
20778SOL    HW263776   3.549   1.001   9.461  0.9720  0.5317 -1.5587
20779SOL     OW63777   4.634   2.143   9.834  0.0150  0.0885 -0.7733
20779SOL    HW163778   4.634   2.229   9.792 -1.2694 -0.4375 -1.9292
20779SOL    HW263779   4.560   2.146   9.894  0.6848  0.1725  0.0694
20780SOL     OW63780   1.960   0.695   7.180 -0.0341 -0.5826 -0.1184
20780SOL    HW163781   1.953   0.611   7.135  0.4016 -0.9922  0.5677
20780SOL    HW263782   2.043   0.690   7.227 -1.4121 -1.0358  2.4498
20781SOL     OW63783   1.211   6.430   2.842  0.4699 -0.3795  0.0995
20781SOL    HW163784   1.196   6.442   2.748 -2.9480  0.7710  0.6607
20781SOL    HW263785   1.170   6.506   2.883  3.6677  0.2524  2.5350
20782SOL     OW63786   2.625   2.391   6.874 -0.6112 -0.4318 -0.3471
20782SOL    HW163787   2.576   2.314   6.903 -1.6553  0.1661 -0.4812
20782SOL    HW263788   2.696   2.400   6.938 -1.0924 -0.9025  0.2647
20783SOL     OW63789   1.187   4.529   1.488 -0.7907  0.4171 -0.6497
20783SOL    HW163790   1.153   4.601   1.542 -0.6597 -0.4531  0.6510
20783SOL    HW263791   1.123   4.520   1.417 -1.4791  0.9977 -0.1211
20784SOL     OW63792   7.696   3.783   1.777  0.0017  0.3970 -0.0183
20784SOL    HW163793   7.790   3.802   1.778  0.0121  0.3583 -0.2262
20784SOL    HW263794   7.679   3.747   1.864 -0.0331  1.3875  0.3986
20785SOL     OW63795   4.153   3.036  12.352 -0.3319 -0.0735  0.6034
20785SOL    HW163796   4.099   2.989  12.415 -1.5582  2.8066  1.8892
20785SOL    HW263797   4.149   2.984  12.272 -1.9561 -1.8489  1.7765
20786SOL     OW63798   1.053   0.086   0.585 -0.4329 -0.4085 -0.2108
20786SOL    HW163799   0.958   0.083   0.577 -0.6383  1.2467  1.0684
20786SOL    HW263800   1.074   0.029   0.658 -0.3853 -1.0287 -0.6963
20787SOL     OW63801   1.339   0.642   7.056  0.1109 -0.7614  0.0902
20787SOL    HW163802   1.271   0.629   7.122  0.4961  0.2597  0.7039
20787SOL    HW263803   1.376   0.728   7.076 -0.1631 -0.1461 -1.8175
20788SOL     OW63804   0.139   5.511   3.802 -0.2924  0.5937 -0.0838
20788SOL    HW163805   0.054   5.471   3.819  0.0613  0.2715  1.0241
20788SOL    HW263806   0.203   5.445   3.831  0.3564  0.6366 -1.3275
20789SOL     OW63807   2.055   0.590  10.207  0.3231 -0.4107  0.2140
20789SOL    HW163808   2.015   0.515  10.164 -1.7680  0.9841 -0.4590
20789SOL    HW263809   2.109   0.632  10.140 -0.1553 -0.1795 -0.0295
20790SOL     OW63810   2.082   6.705  11.727 -0.0971  0.1984  0.0637
20790SOL    HW163811   2.166   6.680  11.689  0.1696 -0.6870  1.1939
20790SOL    HW263812   2.075   6.653  11.807 -1.7854  0.1662 -0.0770
20791SOL     OW63813   4.045   7.338   4.998 -0.1368  0.0500 -0.3711
20791SOL    HW163814   4.048   7.268   5.063  0.4082  0.6132  0.2213
20791SOL    HW263815   4.027   7.417   5.048  1.0072  0.6058 -0.7864
20792SOL     OW63816   2.019   4.933   2.922  0.1198  0.2053 -0.4823
20792SOL    HW163817   2.057   4.995   2.984  1.1287 -1.7606  0.9646
20792SOL    HW263818   2.083   4.928   2.851  0.4823  0.1420 -0.1558
20793SOL     OW63819   5.468   6.452   3.507 -0.6371  0.4925 -0.5750
20793SOL    HW163820   5.487   6.440   3.414 -1.6824 -0.0563 -0.7326
20793SOL    HW263821   5.540   6.505   3.539  0.2628 -0.1451 -1.4802
20794SOL     OW63822   4.480   5.622  12.249  0.6521 -1.0389 -0.5851
20794SOL    HW163823   4.529   5.540  12.254 -1.8522 -2.6883 -1.2159
20794SOL    HW263824   4.420   5.618  12.323 -1.8862 -1.5145 -2.5333
20795SOL     OW63825   4.546   7.061   1.175  0.2316  0.0379  0.1389
20795SOL    HW163826   4.550   6.965   1.173  0.9319 -0.0914  3.3762
20795SOL    HW263827   4.456   7.081   1.199  0.2917  0.1683  0.2582
20796SOL     OW63828   7.109   6.070   5.716  0.3389 -0.0991 -0.2384
20796SOL    HW163829   7.048   6.004   5.682  0.2587 -0.0971 -0.0968
20796SOL    HW263830   7.195   6.027   5.711 -0.0677 -1.8070  3.5550
20797SOL     OW63831   0.268   6.125   6.679  0.1513 -0.1938 -0.2060
20797SOL    HW163832   0.202   6.108   6.745 -1.0020  0.2863 -1.1965
20797SOL    HW263833   0.349   6.092   6.717 -0.4920 -0.0448  1.3840
20798SOL     OW63834   5.086   1.090   2.845  0.2343 -0.0719  0.6854
20798SOL    HW163835   5.052   1.003   2.869  0.7584 -0.4732  0.0118
20798SOL    HW263836   5.179   1.086   2.869  0.7986 -0.5063 -1.3602
20799SOL     OW63837   1.377   4.240   5.153 -0.0500 -0.3404  0.4589
20799SOL    HW163838   1.423   4.290   5.086  0.0833  0.9913  1.5025
20799SOL    HW263839   1.420   4.155   5.153 -0.9667 -0.9047 -2.0895
20800SOL     OW63840   1.254   1.332   0.549 -0.1030 -0.1176 -0.3586
20800SOL    HW163841   1.170   1.287   0.540 -0.1515  0.1019 -1.0121
20800SOL    HW263842   1.246   1.381   0.631 -0.4649 -0.4000 -0.2214
20801SOL     OW63843   7.779   6.327  12.005  0.4721 -0.0475  0.2200
20801SOL    HW163844   7.733   6.250  12.039  1.1403 -0.6259 -0.1761
20801SOL    HW263845   7.747   6.337  11.916  1.0856 -0.4344 -0.0470
20802SOL     OW63846   5.300   3.039   9.670  0.1210 -0.1740 -0.4097
20802SOL    HW163847   5.387   3.043   9.632  0.5660  1.3354  0.6514
20802SOL    HW263848   5.240   3.039   9.595  0.9999  1.0499 -1.1493
20803SOL     OW63849   2.377   3.172   0.067  0.1986  0.5076  0.5912
20803SOL    HW163850   2.450   3.111   0.056 -0.8993 -0.8264  0.4173
20803SOL    HW263851   2.415   3.259   0.054  1.2181 -0.2715 -2.5695
20804SOL     OW63852   1.321   2.236   2.719 -0.3090 -0.0702 -0.4829
20804SOL    HW163853   1.235   2.240   2.760  0.3430 -1.5738  1.1795
20804SOL    HW263854   1.382   2.223   2.793  1.3873  1.1977 -1.5739
20805SOL     OW63855   2.343   1.919   0.998 -0.2643  0.0722 -0.3503
20805SOL    HW163856   2.385   2.001   0.973  2.1804 -1.6210 -2.3420
20805SOL    HW263857   2.378   1.899   1.085  0.7354  0.1882 -0.7148
20806SOL     OW63858   3.813   2.281   2.102 -0.0796  0.4923  0.1972
20806SOL    HW163859   3.895   2.253   2.062  0.1630  0.1850  0.8920
20806SOL    HW263860   3.752   2.287   2.029  0.2407 -0.4669 -0.1666
20807SOL     OW63861   0.293   5.174   7.648 -0.1591  0.3317 -0.5108
20807SOL    HW163862   0.206   5.187   7.612 -0.2414 -1.4090 -1.0578
20807SOL    HW263863   0.342   5.131   7.578  0.6640 -0.1325  0.3159
20808SOL     OW63864   5.930   0.775   0.003  0.0692  0.1159 -0.1795
20808SOL    HW163865   5.863   0.816  -0.051 -1.9931  0.5377  2.5013
20808SOL    HW263866   5.891   0.693   0.032 -0.3464  1.3534  3.2130
20809SOL     OW63867   5.494   7.184   5.827  0.0996  0.2491 -0.1330
20809SOL    HW163868   5.429   7.234   5.779  0.1671 -0.4778 -1.0029
20809SOL    HW263869   5.447   7.106   5.858  0.7170 -0.6840 -1.4545
20810SOL     OW63870   0.864   1.066   9.023  0.3278  0.0765 -0.2463
20810SOL    HW163871   0.823   1.145   8.988 -0.5037 -0.4384 -0.4869
20810SOL    HW263872   0.909   1.027   8.948  2.0316  1.0860  0.2095
20811SOL     OW63873   6.869   2.707  11.542 -0.0316 -0.2283 -0.0198
20811SOL    HW163874   6.875   2.768  11.616 -0.3571  1.2329 -1.1501
20811SOL    HW263875   6.923   2.747  11.474  0.9560 -1.9852 -0.3086
20812SOL     OW63876   5.293   2.390   6.290  0.3059 -0.0102 -0.2845
20812SOL    HW163877   5.203   2.391   6.323 -0.2796 -0.2922 -1.7826
20812SOL    HW263878   5.283   2.383   6.195  1.9255 -0.2876 -0.4547
20813SOL     OW63879   4.082   5.011   1.740 -0.0071 -0.0315  0.1179
20813SOL    HW163880   4.143   4.942   1.768  0.1201  0.1459  0.2762
20813SOL    HW263881   4.125   5.051   1.664 -0.5288 -0.7694 -0.5870
20814SOL     OW63882   5.398   7.592   0.152 -0.5078 -0.1099 -0.3457
20814SOL    HW163883   5.321   7.648   0.161 -0.9064 -0.5487 -0.9188
20814SOL    HW263884   5.365   7.503   0.161  0.0967 -0.2683  0.4081
20815SOL     OW63885   1.397   0.029  10.552 -0.4258 -0.4033 -0.3226
20815SOL    HW163886   1.438  -0.009  10.474  1.5492  1.9017 -0.5257
20815SOL    HW263887   1.466   0.029  10.618 -0.6412  1.7320 -0.0290
20816SOL     OW63888   1.368   0.040   3.665  0.0691  0.2044 -0.4926
20816SOL    HW163889   1.299  -0.023   3.685 -0.9618  1.4671  0.0665
20816SOL    HW263890   1.407   0.060   3.750  1.0603 -0.4075 -0.7907
20817SOL     OW63891   3.558   3.866   2.963  0.0830 -0.0593 -0.2598
20817SOL    HW163892   3.635   3.833   2.918  0.0656 -0.1459 -0.2258
20817SOL    HW263893   3.486   3.811   2.932 -0.1870  0.8244 -1.2588
20818SOL     OW63894   5.500   5.014  11.317 -0.0365 -0.3498  0.3473
20818SOL    HW163895   5.523   4.927  11.348  0.2813 -0.2453  0.4046
20818SOL    HW263896   5.472   5.000  11.227  0.5732 -0.4351  0.1657
20819SOL     OW63897   3.116   6.105   9.853  0.6721 -0.4030 -0.5549
20819SOL    HW163898   3.125   6.010   9.855 -1.7216 -0.6881 -0.8271
20819SOL    HW263899   3.025   6.120   9.830  1.3726  1.9791 -2.2088
20820SOL     OW63900   1.588   1.017   0.304 -0.4449 -0.3075 -0.1868
20820SOL    HW163901   1.546   1.090   0.258  2.0986  0.8788 -0.7928
20820SOL    HW263902   1.670   1.003   0.257 -0.3811 -2.8923  0.5752
20821SOL     OW63903   4.444   1.038   4.459 -0.1268  0.5683  0.1243
20821SOL    HW163904   4.403   0.958   4.428 -2.3273  1.5222  0.4035
20821SOL    HW263905   4.378   1.079   4.515  1.6583  1.6498  1.5388
20822SOL     OW63906   5.352   0.502  12.347  0.4054  0.5402 -0.2815
20822SOL    HW163907   5.435   0.548  12.341  0.9741 -0.2829  0.9004
20822SOL    HW263908   5.347   0.472  12.438 -0.6617 -0.3911 -0.6136
20823SOL     OW63909   6.729   5.348   8.265 -0.2608  0.5942  0.5800
20823SOL    HW163910   6.672   5.325   8.338 -0.7798  2.1778  0.7225
20823SOL    HW263911   6.803   5.289   8.272 -1.4549 -0.9176  0.9224
20824SOL     OW63912   6.605   2.498   2.229  0.3040 -0.1527  0.4030
20824SOL    HW163913   6.567   2.423   2.185 -1.1943  0.6963  0.1857
20824SOL    HW263914   6.545   2.517   2.301  0.0557  1.4451 -0.1773
20825SOL     OW63915   7.211   7.433   2.941  0.3828 -0.1682  0.0761
20825SOL    HW163916   7.273   7.386   2.884  2.2779  1.2773  0.8383
20825SOL    HW263917   7.226   7.525   2.921  1.0473  0.4000  2.7599
20826SOL     OW63918   2.446   3.237  10.232 -0.2900 -0.2165 -0.0530
20826SOL    HW163919   2.454   3.173  10.303 -0.9113  0.6075  0.7941
20826SOL    HW263920   2.535   3.252  10.201  0.2929  1.0128  2.0340
20827SOL     OW63921   0.445   4.609  11.533  0.0514  0.1624 -0.1056
20827SOL    HW163922   0.432   4.601  11.438  1.6380  1.0963 -0.4266
20827SOL    HW263923   0.367   4.655  11.564 -0.9993 -1.0883 -0.7643
20828SOL     OW63924   2.632   1.803   6.943  0.0967  0.3771  0.4117
20828SOL    HW163925   2.631   1.876   6.882 -3.8020 -0.6649 -1.0499
20828SOL    HW263926   2.675   1.732   6.895  0.2909  0.5933  0.2672
20829SOL     OW63927   6.340   3.106   8.116 -0.2932  0.6519 -0.2909
20829SOL    HW163928   6.357   3.096   8.210  0.1323  0.1011 -0.4237
20829SOL    HW263929   6.425   3.097   8.075 -0.5409  0.4644 -0.7670
20830SOL     OW63930   2.392   4.122   3.588 -0.0201  0.0748 -0.7351
20830SOL    HW163931   2.336   4.047   3.609  1.1868 -0.3091  1.4779
20830SOL    HW263932   2.359   4.193   3.644  1.9858 -0.3361  1.0960
20831SOL     OW63933   7.144   3.026   2.633 -0.1335 -0.2922  0.0855
20831SOL    HW163934   7.221   3.028   2.576  1.1388 -3.4480  1.4211
20831SOL    HW263935   7.086   2.961   2.593 -1.7823  1.3912 -0.4072
20832SOL     OW63936   6.973   4.873  11.640 -0.1585  0.1157  0.1647
20832SOL    HW163937   6.908   4.825  11.588  0.7554 -2.0868  0.9343
20832SOL    HW263938   6.945   4.862  11.730  0.6702  0.0784  0.4289
20833SOL     OW63939   0.389   2.479  10.097  0.0586  0.7258 -0.1885
20833SOL    HW163940   0.447   2.456  10.170  0.0468 -0.7497 -0.6128
20833SOL    HW263941   0.425   2.432  10.022 -1.9301 -0.6233 -0.3728
20834SOL     OW63942   4.857   2.474   2.188  0.1535 -0.5183 -0.0353
20834SOL    HW163943   4.812   2.427   2.117  0.1749 -0.0661 -0.3482
20834SOL    HW263944   4.925   2.525   2.144 -0.5075  0.5744  0.1956
20835SOL     OW63945   4.021   6.658   9.264  0.1574  0.7723  0.1784
20835SOL    HW163946   3.963   6.706   9.323 -1.1183 -0.1564 -0.2806
20835SOL    HW263947   4.012   6.567   9.289  2.5132  0.7004  0.9930
20836SOL     OW63948   7.426   3.757  11.351  0.1885 -0.2897  0.0928
20836SOL    HW163949   7.355   3.710  11.308 -0.6464  0.8498  0.1603
20836SOL    HW263950   7.491   3.772  11.282  0.3551 -1.3011  0.0204
20837SOL     OW63951   1.570   6.791  10.666 -0.3190  0.0787  0.2533
20837SOL    HW163952   1.585   6.877  10.707  0.0765 -0.5706  1.5404
20837SOL    HW263953   1.520   6.810  10.587 -0.2645  1.4929  0.5363
20838SOL     OW63954   5.653   7.698   6.343 -0.6882  0.0226 -0.5436
20838SOL    HW163955   5.565   7.734   6.337 -1.2341 -1.2961 -0.5515
20838SOL    HW263956   5.641   7.606   6.367  0.7381  0.3030  1.5622
20839SOL     OW63957   6.442   7.278   1.866  0.4065  0.3539 -0.0189
20839SOL    HW163958   6.481   7.217   1.929 -1.3868  0.8230  1.6432
20839SOL    HW263959   6.442   7.230   1.783  2.2082 -0.5576  0.4578
20840SOL     OW63960   1.279   7.661   0.877  0.9259 -0.2652  0.2150
20840SOL    HW163961   1.357   7.617   0.844  0.8368 -0.8435  0.7457
20840SOL    HW263962   1.270   7.629   0.967  0.1495 -0.1150  0.2006
20841SOL     OW63963   7.527   2.565   4.584  0.0549 -0.6089 -0.7084
20841SOL    HW163964   7.446   2.545   4.631  2.2691 -0.1157  3.8919
20841SOL    HW263965   7.557   2.481   4.551 -0.2647 -1.5958  1.3600
20842SOL     OW63966   2.405   0.353   8.224 -0.3420 -0.2256  0.2908
20842SOL    HW163967   2.396   0.386   8.314 -1.8279  0.9267 -0.2361
20842SOL    HW263968   2.351   0.274   8.222  0.3959 -0.7496  0.6236
20843SOL     OW63969   1.601   3.818   9.432 -0.0659  0.4089 -0.2080
20843SOL    HW163970   1.652   3.756   9.381  0.8659  0.3880  0.7242
20843SOL    HW263971   1.567   3.880   9.368 -0.1558 -0.4626 -1.0206
20844SOL     OW63972   5.889   3.058   4.919 -0.5707  0.0382 -0.0963
20844SOL    HW163973   5.977   3.030   4.893  1.1438  2.9186  1.9152
20844SOL    HW263974   5.839   3.059   4.838  2.5036  2.1681 -2.2221
20845SOL     OW63975   1.009   5.973   6.043  0.0356 -0.4468  0.3452
20845SOL    HW163976   0.945   5.962   6.113  0.7231  0.6051  1.1586
20845SOL    HW263977   0.997   6.063   6.013  0.6207 -0.4789 -0.0070
20846SOL     OW63978   6.205   6.329   5.186  0.4359 -0.4202 -0.2888
20846SOL    HW163979   6.162   6.381   5.118  0.9551  0.5550  0.1122
20846SOL    HW263980   6.280   6.381   5.212  1.3916 -1.6982 -0.3631
20847SOL     OW63981   6.616   3.990   7.088 -0.0473 -0.0735 -0.4005
20847SOL    HW163982   6.529   4.025   7.069 -0.4735 -1.6286 -1.5428
20847SOL    HW263983   6.601   3.925   7.156 -0.0146 -1.2221 -1.4476
20848SOL     OW63984   3.964   6.362   3.586 -0.0691  0.3468 -0.0682
20848SOL    HW163985   4.052   6.349   3.620 -0.1344 -2.6559 -0.7556
20848SOL    HW263986   3.916   6.403   3.658  1.5081  0.6142  0.8558
20849SOL     OW63987   2.120   7.380   4.481 -0.1909 -0.0092 -0.2147
20849SOL    HW163988   2.070   7.451   4.441 -3.6407 -1.1361  1.6491
20849SOL    HW263989   2.155   7.330   4.408 -1.3485  1.2309 -1.6757
20850SOL     OW63990   3.629   7.619   0.335 -0.3511 -0.0329  0.2899
20850SOL    HW163991   3.629   7.610   0.430  2.2692 -0.0144  0.3660
20850SOL    HW263992   3.695   7.557   0.305 -0.6404  0.4527 -1.4621
20851SOL     OW63993   7.167   7.461   7.587 -0.3955  0.0273  0.5309
20851SOL    HW163994   7.196   7.408   7.513 -0.2302 -0.8540  1.2023
20851SOL    HW263995   7.120   7.534   7.548 -0.3559 -0.4491 -0.4346
20852SOL     OW63996   5.623   2.725   8.409 -0.5566 -0.7165  0.3325
20852SOL    HW163997   5.661   2.708   8.496  0.3468  1.5996  0.4606
20852SOL    HW263998   5.694   2.702   8.348  0.2270  1.2197  0.4476
20853SOL     OW63999   1.760   7.080  10.714 -0.1940 -0.2756  0.6886
20853SOL    HW164000   1.798   7.033  10.640  0.1414  0.3937  0.4222
20853SOL    HW264001   1.687   7.129  10.677  0.2563  0.4249  0.6931
20854SOL     OW64002   5.414   5.520   4.661 -0.5935  0.2435  0.1071
20854SOL    HW164003   5.337   5.575   4.677 -0.5348  0.1563  0.7150
20854SOL    HW264004   5.481   5.582   4.632 -0.6032  0.4636  0.5429
20855SOL     OW64005   6.168   2.792  10.986 -0.0562 -0.1164  0.2413
20855SOL    HW164006   6.089   2.741  11.003 -2.3218  3.1921  0.5037
20855SOL    HW264007   6.194   2.767  10.897 -2.1319 -0.3817 -0.3316
20856SOL     OW64008   6.255   5.075   9.440  0.3429  0.2133 -0.2871
20856SOL    HW164009   6.246   5.145   9.375  0.8411  2.0717  1.5566
20856SOL    HW264010   6.165   5.049   9.459  0.0730  1.2158 -0.1206
20857SOL     OW64011   4.894   1.755   1.621 -0.9035  0.0210  0.2226
20857SOL    HW164012   4.830   1.792   1.561 -0.2705 -0.3068 -0.6737
20857SOL    HW264013   4.888   1.810   1.699 -0.4916  1.5760 -0.7944
20858SOL     OW64014   2.089   6.254   1.342  0.5630 -0.5638 -0.1164
20858SOL    HW164015   2.145   6.322   1.304  0.8355 -0.7567 -0.0653
20858SOL    HW264016   2.151   6.190   1.378  0.3086 -0.9674 -0.3898
20859SOL     OW64017   6.835   7.702   4.848  0.5518  0.6433 -0.6587
20859SOL    HW164018   6.803   7.656   4.925  0.3644  2.0007  0.1197
20859SOL    HW264019   6.776   7.777   4.839  2.9111  2.7611  0.3005
20860SOL     OW64020   0.865   4.174  10.893  0.5237  0.4234  0.1653
20860SOL    HW164021   0.849   4.214  10.807 -2.1872 -0.7941  0.0137
20860SOL    HW264022   0.852   4.246  10.955 -1.5066  0.4945 -0.2687
20861SOL     OW64023   3.578   6.348   1.420 -0.0143  0.0929 -0.3787
20861SOL    HW164024   3.565   6.279   1.484 -1.7324  0.7507  0.0483
20861SOL    HW264025   3.626   6.307   1.348  0.3895 -1.1029  0.5566
20862SOL     OW64026   5.178   5.982   2.432 -0.0857  0.5615 -0.3003
20862SOL    HW164027   5.099   6.035   2.441 -0.5201 -0.0446 -0.4603
20862SOL    HW264028   5.149   5.903   2.385  1.0837  1.3659 -2.5095
20863SOL     OW64029   3.749   1.517   9.975  0.0315  0.0472 -0.0711
20863SOL    HW164030   3.725   1.548  10.062  2.2876  1.4939  0.1109
20863SOL    HW264031   3.829   1.565   9.954  2.3923 -3.8227 -0.8750
20864SOL     OW64032   6.806   6.878   0.440 -0.0251 -0.2283  0.3751
20864SOL    HW164033   6.831   6.970   0.444  0.8904 -0.3914 -0.8497
20864SOL    HW264034   6.888   6.832   0.420 -0.8889 -1.0273 -1.6288
20865SOL     OW64035   6.812   5.994   7.017  0.3776 -0.1472 -0.4322
20865SOL    HW164036   6.738   5.999   6.957  0.3933 -1.2517 -0.5610
20865SOL    HW264037   6.889   5.983   6.960  0.7478  1.5185 -0.3333
20866SOL     OW64038   1.771   0.616  12.446  0.1559 -0.0524  0.0241
20866SOL    HW164039   1.730   0.598  12.531 -1.0247 -0.1821 -0.5553
20866SOL    HW264040   1.731   0.697  12.416  1.3685  0.5855  0.0696
20867SOL     OW64041   2.807   1.339   7.557 -0.1247  0.3171 -0.1680
20867SOL    HW164042   2.858   1.277   7.609  1.6908  1.8706  0.0568
20867SOL    HW264043   2.818   1.310   7.467 -0.1792 -0.2769  0.0116
20868SOL     OW64044   6.354   6.989   9.712 -0.2507 -0.3805 -0.4878
20868SOL    HW164045   6.275   6.942   9.686  0.9581 -2.0835 -1.3596
20868SOL    HW264046   6.340   7.012   9.804 -1.5904 -1.0046 -0.5203
20869SOL     OW64047   0.351   6.725   8.474  0.4197  0.0017 -0.5214
20869SOL    HW164048   0.370   6.632   8.463  1.1953 -0.1744  1.8578
20869SOL    HW264049   0.270   6.738   8.424  0.4004 -1.8858 -1.0692
20870SOL     OW64050   0.086   5.454   4.185 -0.7125  0.5111 -0.0977
20870SOL    HW164051   0.138   5.381   4.218 -0.6740 -0.2194 -1.6888
20870SOL    HW264052   0.135   5.487   4.110 -0.5551  2.4305  0.7743
20871SOL     OW64053   4.145   5.035   9.150  0.0994 -0.3942  0.1924
20871SOL    HW164054   4.240   5.043   9.140  0.3330 -1.5500  1.2378
20871SOL    HW264055   4.122   4.954   9.105 -1.0543  1.7979 -3.5714
20872SOL     OW64056   6.623   1.886  12.023 -0.2244  0.3781  0.6127
20872SOL    HW164057   6.657   1.958  12.076  0.3012  0.7684 -0.2312
20872SOL    HW264058   6.635   1.808  12.077 -0.7720  0.9102  1.5277
20873SOL     OW64059   2.997   6.183   2.607  0.5328  0.2927  0.0890
20873SOL    HW164060   3.031   6.121   2.672 -1.4786 -1.7736 -0.7093
20873SOL    HW264061   3.060   6.181   2.536  0.4182 -0.9954  0.0111
20874SOL     OW64062   1.993   3.948   4.477 -0.6711 -0.0699 -0.0908
20874SOL    HW164063   2.055   3.876   4.466 -0.2818  0.2273  0.1392
20874SOL    HW264064   1.941   3.923   4.553 -1.2034 -0.5811 -0.6167
20875SOL     OW64065   3.986   2.338   2.971 -0.2422 -0.2462 -0.0210
20875SOL    HW164066   3.980   2.325   2.876  1.4932 -0.4594 -0.1488
20875SOL    HW264067   3.966   2.430   2.984 -1.5240 -0.4479 -0.4630
20876SOL     OW64068   4.186   0.174   8.948  0.5474  0.3041  0.1476
20876SOL    HW164069   4.189   0.178   8.853  2.7783  0.1679  0.1593
20876SOL    HW264070   4.198   0.265   8.976  0.6606  0.2494  0.2828
20877SOL     OW64071   7.026   7.565   3.699  0.3318  0.1789  0.0826
20877SOL    HW164072   7.043   7.480   3.741  1.9542  0.5866  0.3116
20877SOL    HW264073   6.935   7.584   3.720 -0.6930 -2.3562 -1.5049
20878SOL     OW64074   5.047   6.813   9.114 -0.5117 -0.0283 -0.4606
20878SOL    HW164075   4.972   6.810   9.174 -0.4881 -0.1041 -0.4360
20878SOL    HW264076   5.013   6.777   9.032 -0.6493  0.4139 -0.6048
20879SOL     OW64077   6.583   5.959   6.819 -0.1546 -0.6554  0.0418
20879SOL    HW164078   6.542   5.874   6.806 -1.1457 -0.1146 -0.4984
20879SOL    HW264079   6.670   5.951   6.779 -0.5179 -1.1762 -0.6583
20880SOL     OW64080   5.065   7.821   6.026  0.0398 -0.3389 -0.5507
20880SOL    HW164081   5.100   7.850   6.110  0.8450  0.0496 -1.0089
20880SOL    HW264082   5.010   7.746   6.048  0.0942 -0.1288  0.3421
20881SOL     OW64083   1.054   1.971  11.157  0.4445  0.4681  0.3328
20881SOL    HW164084   1.014   1.972  11.070  3.1330  1.3421 -1.0040
20881SOL    HW264085   1.095   1.885  11.164 -1.0072 -0.1747  1.4176
20882SOL     OW64086   7.648   3.159  11.483 -0.3563  0.4038  0.0726
20882SOL    HW164087   7.618   3.071  11.458 -1.7115  0.1911  2.2344
20882SOL    HW264088   7.713   3.181  11.417 -2.1308 -0.9697 -2.3181
20883SOL     OW64089   4.084   4.548  10.386 -0.5977 -0.3219  0.1589
20883SOL    HW164090   4.177   4.526  10.380 -0.5737 -0.0061 -0.9938
20883SOL    HW264091   4.077   4.634  10.344 -1.1768  0.4098  1.7029
20884SOL     OW64092   1.869   0.129   4.437 -0.4630 -1.3245 -0.2955
20884SOL    HW164093   1.927   0.106   4.364 -1.3613 -2.4120 -0.6865
20884SOL    HW264094   1.929   0.147   4.510  0.3947 -1.7760 -0.8685
20885SOL     OW64095   7.304   0.041   3.536  0.1040 -1.3195 -0.8483
20885SOL    HW164096   7.218   0.053   3.496 -0.1003  2.2129  0.3878
20885SOL    HW264097   7.364   0.087   3.477  0.6895 -1.1215 -0.1041
20886SOL     OW64098   5.565   3.022   9.792 -0.6784 -0.6577  0.1291
20886SOL    HW164099   5.499   3.062   9.849 -0.5037  0.8023 -0.6540
20886SOL    HW264100   5.560   2.928   9.812 -3.5975 -0.7355 -0.5487
20887SOL     OW64101   1.647   4.630   8.530 -0.1631 -0.2589 -0.0841
20887SOL    HW164102   1.598   4.554   8.498 -0.0124 -0.4893  0.2281
20887SOL    HW264103   1.616   4.703   8.476 -1.0599 -0.3442  0.3055
20888SOL     OW64104   5.430   5.111   0.033 -0.2132  0.1275 -0.2689
20888SOL    HW164105   5.353   5.079  -0.014  0.1368  1.0495 -1.5429
20888SOL    HW264106   5.471   5.172  -0.028  0.0359  1.7396  1.4291
20889SOL     OW64107   4.596   6.894   8.346 -0.0562 -0.3558 -0.2144
20889SOL    HW164108   4.516   6.861   8.307 -0.8008  0.8277  0.2680
20889SOL    HW264109   4.659   6.898   8.274 -0.5968 -0.7512 -0.7126
20890SOL     OW64110   1.445   4.237   8.616  0.1076 -0.5331  0.1382
20890SOL    HW164111   1.400   4.285   8.686 -0.1667  0.2552 -0.5705
20890SOL    HW264112   1.400   4.152   8.613 -0.5919 -0.1756  0.2079
20891SOL     OW64113   5.507   0.023   4.422 -0.1383  0.1566 -0.1288
20891SOL    HW164114   5.540   0.103   4.463 -0.9782 -0.0440  0.9777
20891SOL    HW264115   5.474  -0.029   4.494  0.3428 -1.1868 -0.8468
20892SOL     OW64116   4.698   1.607  12.274 -0.1059  0.7356 -0.4041
20892SOL    HW164117   4.785   1.647  12.269  0.1098  0.5993  1.5247
20892SOL    HW264118   4.638   1.677  12.250  0.5283  0.4705 -3.1398
20893SOL     OW64119   4.837   7.261   6.114 -0.4076 -0.1053 -0.5223
20893SOL    HW164120   4.826   7.268   6.019 -0.3404  0.3792 -0.4966
20893SOL    HW264121   4.764   7.312   6.150 -0.3700 -0.1961 -0.3164
20894SOL     OW64122   5.416   0.992   9.670  0.0063 -0.1016 -0.1488
20894SOL    HW164123   5.426   0.947   9.754 -0.8264 -0.7595 -0.3819
20894SOL    HW264124   5.504   0.991   9.632  0.2203 -0.5751  0.3364
20895SOL     OW64125   7.167   4.361   5.050  0.0437  0.6470  0.0305
20895SOL    HW164126   7.123   4.332   5.130  0.7530 -0.7314 -0.0436
20895SOL    HW264127   7.121   4.440   5.024 -0.0021  1.2936  1.9624
20896SOL     OW64128   5.450   5.263  11.692 -0.2016 -0.0375 -0.2696
20896SOL    HW164129   5.422   5.173  11.676 -0.5137  0.1402 -0.7362
20896SOL    HW264130   5.395   5.294  11.764  0.2396 -0.3745  0.2226
20897SOL     OW64131   0.962   7.700   4.741  0.2640 -0.0736  0.3503
20897SOL    HW164132   0.869   7.681   4.756 -0.0312  0.7085 -0.4160
20897SOL    HW264133   0.971   7.701   4.646  1.0893 -0.2553  0.4211
20898SOL     OW64134   7.882   4.020   9.285 -0.3565 -0.1563 -0.3291
20898SOL    HW164135   7.871   4.078   9.209 -1.1309 -0.4004 -0.4081
20898SOL    HW264136   7.936   4.071   9.346 -1.6993  0.9824 -0.0570
20899SOL     OW64137   1.684   2.419   4.171 -0.0178 -0.2384  0.0028
20899SOL    HW164138   1.591   2.418   4.196 -0.4334  1.7864 -1.2263
20899SOL    HW264139   1.684   2.447   4.080  1.8394  0.3191  0.1286
20900SOL     OW64140   5.016   4.728   5.245  0.2940  0.2331  0.5815
20900SOL    HW164141   4.985   4.775   5.167  0.6021 -0.7727 -0.1660
20900SOL    HW264142   5.086   4.783   5.280  1.5806 -0.2758 -1.0500
20901SOL     OW64143   2.561   0.405   0.816  0.0626  0.4017  0.0367
20901SOL    HW164144   2.587   0.462   0.888 -0.3056  1.9298 -0.9989
20901SOL    HW264145   2.613   0.435   0.742 -0.8698  0.0666 -0.7759
20902SOL     OW64146   1.194   6.336  10.332 -0.0122 -0.4263  0.1950
20902SOL    HW164147   1.251   6.290  10.270 -0.2790  0.9356 -1.1131
20902SOL    HW264148   1.186   6.275  10.406  1.5360 -1.4703 -0.4291
20903SOL     OW64149   4.105   6.079   2.007  0.4889  0.2253  0.0127
20903SOL    HW164150   4.117   6.020   1.932 -2.1499  1.2650 -1.3390
20903SOL    HW264151   4.074   6.022   2.077  0.6297 -0.3961 -0.4173
20904SOL     OW64152   7.794   2.349   9.646 -0.3293 -0.4897  0.2314
20904SOL    HW164153   7.716   2.404   9.639 -0.9080 -1.3754 -0.5475
20904SOL    HW264154   7.762   2.260   9.629  0.7555 -0.9359  0.4537
20905SOL     OW64155   5.197   1.510   8.841  0.7242  0.4800  0.2338
20905SOL    HW164156   5.159   1.573   8.902  0.2894  2.1236 -1.6448
20905SOL    HW264157   5.284   1.544   8.822  0.3534  0.7615 -1.0695
20906SOL     OW64158   4.416   5.575   0.056 -0.4149 -0.6593  0.3641
20906SOL    HW164159   4.510   5.572   0.072  0.0374 -1.0156 -1.9935
20906SOL    HW264160   4.378   5.529   0.130  1.0989  1.0406  2.2970
20907SOL     OW64161   6.922   7.278   4.641 -0.3117 -0.0816  0.3351
20907SOL    HW164162   6.955   7.359   4.678  0.5712 -0.0355 -0.5051
20907SOL    HW264163   6.847   7.305   4.588  0.2892  0.2819 -0.3584
20908SOL     OW64164   5.430   4.184   9.528 -0.0504  0.4420 -0.5517
20908SOL    HW164165   5.514   4.214   9.561  0.6729 -0.7124 -1.2609
20908SOL    HW264166   5.448   4.155   9.438 -1.0728 -0.3680 -0.5231
20909SOL     OW64167   5.437   2.246   4.690 -0.2035  0.0094  0.1494
20909SOL    HW164168   5.460   2.305   4.618 -0.4127  0.2520  0.2838
20909SOL    HW264169   5.470   2.161   4.661  0.9593  0.3619  0.3734
20910SOL     OW64170   7.212   5.544   1.287 -0.0550  0.6279  0.4485
20910SOL    HW164171   7.223   5.474   1.222 -0.1186  0.4312  0.6486
20910SOL    HW264172   7.267   5.517   1.361 -1.0882  0.1350  1.0540
20911SOL     OW64173   0.637   7.385   1.253 -0.2503  0.0243 -0.4318
20911SOL    HW164174   0.585   7.361   1.329 -2.2749  0.0518 -1.7332
20911SOL    HW264175   0.703   7.445   1.288 -2.6146  2.0059  0.9972
20912SOL     OW64176   4.508   5.325   3.156 -0.4113  0.2547  0.3919
20912SOL    HW164177   4.496   5.385   3.083 -1.3669  1.0407  1.1567
20912SOL    HW264178   4.461   5.367   3.229  0.4666 -0.5259  1.4378
20913SOL     OW64179   7.189   7.249   1.451 -0.2333 -0.0028  0.4108
20913SOL    HW164180   7.189   7.224   1.543 -3.5689 -0.6059  0.3833
20913SOL    HW264181   7.281   7.245   1.425  0.5203 -2.6729  2.9468
20914SOL     OW64182   1.627   5.187   5.862 -1.2110 -0.3535 -0.4467
20914SOL    HW164183   1.594   5.097   5.851 -1.4151 -0.2320 -0.8153
20914SOL    HW264184   1.550   5.242   5.857 -1.2637 -0.2454  1.0869
20915SOL     OW64185   0.664   0.797   3.666  0.2166  0.6953 -0.3836
20915SOL    HW164186   0.621   0.718   3.698 -1.4327  0.4919 -2.8519
20915SOL    HW264187   0.616   0.869   3.707 -0.6144  0.4240 -0.8473
20916SOL     OW64188   3.144   2.181   4.323  0.5786  0.2455  0.0294
20916SOL    HW164189   3.199   2.109   4.353 -0.0495  0.6549  2.3148
20916SOL    HW264190   3.204   2.256   4.318  0.7751  0.0770 -0.1722
20917SOL     OW64191   0.827   3.835   5.783  0.1903  0.5797  0.3946
20917SOL    HW164192   0.743   3.879   5.770  0.9051  1.6417 -0.7859
20917SOL    HW264193   0.843   3.789   5.701 -0.4745 -1.8726  1.5436
20918SOL     OW64194   4.361   5.690   8.807  0.7416  0.4969 -0.6098
20918SOL    HW164195   4.341   5.773   8.762 -2.4185 -0.2349 -0.8110
20918SOL    HW264196   4.375   5.716   8.898  0.1695  1.3040 -0.7363
20919SOL     OW64197   4.079   5.665   7.578  0.3476  0.1760  0.7649
20919SOL    HW164198   3.991   5.700   7.570 -0.2801 -1.3905  0.4590
20919SOL    HW264199   4.136   5.736   7.547 -0.8706  0.7783 -0.1784
20920SOL     OW64200   4.029   4.898   3.743 -0.1988  0.0415 -0.1949
20920SOL    HW164201   4.098   4.832   3.748 -1.7981 -1.6397  1.7634
20920SOL    HW264202   3.991   4.886   3.656 -0.7218 -2.0124  0.2611
20921SOL     OW64203   4.011   1.752   7.883  0.2496  0.3200 -0.5153
20921SOL    HW164204   4.087   1.722   7.833 -0.4700  0.8556 -1.9933
20921SOL    HW264205   3.966   1.672   7.910 -0.3922 -0.0233 -2.4198
20922SOL     OW64206   6.515   6.634   2.311 -0.3005  1.0222  0.0432
20922SOL    HW164207   6.462   6.580   2.370  0.5748  3.0354  2.8939
20922SOL    HW264208   6.583   6.575   2.278 -0.0059  0.0729  2.1938
20923SOL     OW64209   1.736   1.076   5.188 -0.0616  0.2636  0.3006
20923SOL    HW164210   1.831   1.081   5.198  0.1124  0.2920 -1.1152
20923SOL    HW264211   1.704   1.159   5.225  0.4243  0.1082  1.0872
20924SOL     OW64212   3.955   0.658   4.018  0.0093 -0.4607 -0.5347
20924SOL    HW164213   3.971   0.739   4.067 -1.4289  1.6053 -3.1769
20924SOL    HW264214   3.863   0.637   4.037  0.3101 -1.3725 -0.0478
20925SOL     OW64215   3.927   7.231   5.557 -0.1803 -0.0878 -0.4659
20925SOL    HW164216   3.942   7.323   5.578  1.0871 -0.0362 -1.5124
20925SOL    HW264217   3.952   7.184   5.636 -0.0288  0.4025 -0.2162
20926SOL     OW64218   4.357   0.544   0.691 -0.9380  0.2783  0.9550
20926SOL    HW164219   4.400   0.630   0.691 -0.5311  0.0918 -0.6332
20926SOL    HW264220   4.264   0.564   0.702 -0.6291  0.7292  3.5797
20927SOL     OW64221   1.244   2.515   0.684 -0.3608  0.3550  0.1683
20927SOL    HW164222   1.303   2.440   0.692 -2.3607 -1.5651 -1.8602
20927SOL    HW264223   1.226   2.541   0.775  1.8777 -0.3168  0.8695
20928SOL     OW64224   6.078   4.370   2.367  0.0058  0.2903 -0.0299
20928SOL    HW164225   6.069   4.381   2.462  1.0242  0.2149  0.0903
20928SOL    HW264226   6.012   4.428   2.330 -0.4814  0.2359  0.7271
20929SOL     OW64227   0.213   4.804   5.487 -0.3210  0.1956 -0.2964
20929SOL    HW164228   0.249   4.823   5.401  1.2590 -0.2751  0.2357
20929SOL    HW264229   0.118   4.808   5.475 -0.1528 -0.7564 -2.2628
20930SOL     OW64230   5.615   5.906   0.570 -0.2908 -0.2031  0.2124
20930SOL    HW164231   5.553   5.954   0.516  0.7339 -0.1869 -0.9945
20930SOL    HW264232   5.695   5.959   0.569 -0.1629 -0.3156  1.5752
20931SOL     OW64233   1.679   2.914   0.583  0.1301  0.0316 -0.0816
20931SOL    HW164234   1.606   2.893   0.641 -0.4402  0.1584 -0.7342
20931SOL    HW264235   1.641   2.971   0.516  1.0912  1.0635  0.2219
20932SOL     OW64236   2.362   5.925   3.222  0.6103  0.1149 -0.2800
20932SOL    HW164237   2.289   5.868   3.246  0.6214  0.3120  0.2517
20932SOL    HW264238   2.384   5.901   3.133 -2.2630  2.3076 -1.7548
20933SOL     OW64239   2.184   4.235   2.455 -0.3056 -0.4315 -0.3946
20933SOL    HW164240   2.136   4.232   2.538  1.3645  0.6174  0.6640
20933SOL    HW264241   2.125   4.280   2.395 -1.1824 -0.3798  0.4734
20934SOL     OW64242   7.418   1.786   8.398 -0.0682 -0.2289  0.1461
20934SOL    HW164243   7.406   1.781   8.493 -1.2163 -0.2332  0.0115
20934SOL    HW264244   7.416   1.695   8.368 -0.1521 -0.2015  0.0681
20935SOL     OW64245   4.027   1.518   6.447 -0.7075 -0.3006 -0.9002
20935SOL    HW164246   4.042   1.589   6.384 -0.7595  0.6684  0.1447
20935SOL    HW264247   4.114   1.501   6.484 -0.6331 -1.0410 -1.4082
20936SOL     OW64248   4.001   7.848   8.689 -0.3554  0.0301 -0.0428
20936SOL    HW164249   3.910   7.838   8.663 -0.2868  0.1248 -0.3199
20936SOL    HW264250   4.001   7.833   8.784 -0.9104  1.6520  0.2461
20937SOL     OW64251   3.870   4.084   0.323 -0.4851  0.4815  0.0185
20937SOL    HW164252   3.830   4.066   0.238 -0.1361 -0.5519  0.0591
20937SOL    HW264253   3.796   4.090   0.383 -0.6864  0.2961 -0.2068
20938SOL     OW64254   4.670   3.438   4.766 -0.5513 -0.0624  0.1950
20938SOL    HW164255   4.742   3.475   4.714 -0.6487  0.6817  0.5708
20938SOL    HW264256   4.640   3.511   4.820 -2.0929 -0.1493 -0.4859
20939SOL     OW64257   7.912   0.935  12.105 -0.3718  0.4403  0.4168
20939SOL    HW164258   7.891   1.008  12.163 -0.6503  0.9668 -0.3279
20939SOL    HW264259   7.870   0.958  12.022  0.3119 -0.1226 -0.0966
20940SOL     OW64260   1.335   2.506  12.390 -0.8179 -0.6328  0.1518
20940SOL    HW164261   1.270   2.557  12.438 -0.0134  0.3779  0.1884
20940SOL    HW264262   1.284   2.462  12.321 -1.5682  0.0202  0.2731
20941SOL     OW64263   4.563   0.829   2.849 -0.0344 -0.0652 -0.1294
20941SOL    HW164264   4.485   0.827   2.904  0.2836 -0.1290  0.3267
20941SOL    HW264265   4.632   0.861   2.907  0.5739 -1.2925 -0.1403
20942SOL     OW64266   4.770   6.791   2.155  0.4688 -0.4317  0.2467
20942SOL    HW164267   4.774   6.699   2.184  0.0561 -0.8572 -0.9982
20942SOL    HW264268   4.706   6.831   2.213 -0.3002 -1.2529 -0.0026
20943SOL     OW64269   1.963   0.015   4.204 -0.0852 -0.0532 -0.1563
20943SOL    HW164270   1.870   0.009   4.181  0.0283  3.3746 -2.1733
20943SOL    HW264271   2.008   0.012   4.119  1.5374 -0.1854  0.6758
20944SOL     OW64272   1.059   1.536   6.665  0.3706  0.2379  0.2734
20944SOL    HW164273   1.095   1.547   6.753  0.7921 -1.2335  0.2994
20944SOL    HW264274   1.128   1.492   6.616 -0.1641  0.3395 -0.5868
20945SOL     OW64275   2.033   1.403   9.358 -0.3639 -0.2836  0.2488
20945SOL    HW164276   2.070   1.371   9.441  0.3159  0.7077  0.3443
20945SOL    HW264277   1.938   1.394   9.369 -0.2322 -2.4376  0.1806
20946SOL     OW64278   0.032   1.976   3.645  0.3870 -0.0386 -0.7877
20946SOL    HW164279   0.104   1.933   3.600 -0.7638 -1.1741 -1.6217
20946SOL    HW264280   0.018   1.925   3.725  0.0552 -0.2377 -0.9732
20947SOL     OW64281   4.249   5.391   1.698  0.0109 -0.0497 -0.0807
20947SOL    HW164282   4.204   5.371   1.615 -1.8165  0.1072  0.8171
20947SOL    HW264283   4.302   5.313   1.715 -1.7480 -1.3061 -0.0414
20948SOL     OW64284   3.413   2.011   3.025  0.0146  0.2032 -0.1106
20948SOL    HW164285   3.377   2.034   2.939 -1.9105 -0.4469  0.4796
20948SOL    HW264286   3.446   1.921   3.013  0.2329  0.3048 -0.2932
20949SOL     OW64287   0.850   3.284   4.951 -0.4522  0.3348  0.5581
20949SOL    HW164288   0.802   3.365   4.968  0.4325  1.2559 -1.1045
20949SOL    HW264289   0.815   3.252   4.868  1.9214  1.2084 -0.8842
20950SOL     OW64290   1.772   3.771   5.983  0.4385  0.1126  0.3588
20950SOL    HW164291   1.804   3.684   5.956  2.1131  1.1837 -1.3678
20950SOL    HW264292   1.695   3.785   5.929  0.0189 -0.3757  0.8149
20951SOL     OW64293   2.340   7.879   7.800  0.3615  0.1803  0.2979
20951SOL    HW164294   2.410   7.858   7.739  0.9041 -0.4933  1.1272
20951SOL    HW264295   2.306   7.794   7.828 -2.2873  0.4505 -1.7090
20952SOL     OW64296   1.147   4.968   7.062 -0.0892  0.0642  0.1609
20952SOL    HW164297   1.153   4.879   7.028 -0.2860  0.1968 -0.2264
20952SOL    HW264298   1.210   5.018   7.011  0.3096  0.0658  0.6511
20953SOL     OW64299   0.476   1.012   8.242  0.0618 -0.3714  0.4209
20953SOL    HW164300   0.413   1.085   8.244 -1.3966 -1.3179 -2.8931
20953SOL    HW264301   0.553   1.048   8.199 -0.1256 -0.4130  0.0441
20954SOL     OW64302   3.118   3.634   8.681 -0.3196 -0.1700 -0.4376
20954SOL    HW164303   3.151   3.544   8.673  0.8550  0.2999 -1.1145
20954SOL    HW264304   3.168   3.672   8.753 -0.0939  0.2361 -0.8028
20955SOL     OW64305   1.775   7.474   7.544 -0.1408  0.2851  0.1769
20955SOL    HW164306   1.719   7.534   7.594 -0.2748  0.4102 -0.1217
20955SOL    HW264307   1.737   7.387   7.562 -0.6172  0.3965 -0.2560
20956SOL     OW64308   0.142   7.096   0.520 -0.0848  0.5485 -0.1219
20956SOL    HW164309   0.082   7.060   0.585 -0.3985 -1.4623 -1.4185
20956SOL    HW264310   0.088   7.159   0.471  0.1873  2.1582  1.5343
20957SOL     OW64311   0.523   6.889   5.197  0.0776 -0.0387  0.4409
20957SOL    HW164312   0.491   6.802   5.222 -0.5380 -0.1682 -0.7279
20957SOL    HW264313   0.451   6.948   5.220  0.0544  0.0186  0.2201
20958SOL     OW64314   3.045   5.182  11.334 -0.4953 -0.2565  0.2241
20958SOL    HW164315   2.992   5.198  11.256 -0.3220 -0.1167  0.1335
20958SOL    HW264316   3.044   5.087  11.345 -0.6393 -0.2661  0.1345
20959SOL     OW64317   2.675   5.667   2.801  0.4320  0.5123 -0.2354
20959SOL    HW164318   2.660   5.754   2.764 -1.2478  1.0358  1.5278
20959SOL    HW264319   2.761   5.674   2.843  0.6702  1.0632 -0.7911
20960SOL     OW64320   1.374   5.886   8.572 -0.4887  0.1494  0.3545
20960SOL    HW164321   1.318   5.890   8.495 -3.7675 -2.1573  2.3116
20960SOL    HW264322   1.316   5.910   8.645  1.9118  0.4650  2.2953
20961SOL     OW64323   3.428   5.156   8.354  0.0167 -0.0956 -0.4652
20961SOL    HW164324   3.335   5.160   8.330  0.0694  0.6291 -0.5559
20961SOL    HW264325   3.428   5.148   8.449 -0.1567 -1.3584 -0.5481
20962SOL     OW64326   1.645   0.609   2.021  0.4329 -0.0971  0.0181
20962SOL    HW164327   1.563   0.575   2.057  1.5990 -1.3174  1.6634
20962SOL    HW264328   1.623   0.697   1.991 -1.0561  0.3298  2.1380
20963SOL     OW64329   5.710   3.376   6.677  0.1239  0.2785  0.8084
20963SOL    HW164330   5.695   3.449   6.617 -1.1344  0.8736  1.7884
20963SOL    HW264331   5.805   3.367   6.680  0.2299  0.2940 -1.1582
20964SOL     OW64332   5.831   5.933   9.479  0.5766 -0.1905  0.0166
20964SOL    HW164333   5.886   5.877   9.426  1.6744  1.5139 -0.7125
20964SOL    HW264334   5.741   5.908   9.456  1.0225  0.0898 -2.2192
20965SOL     OW64335   4.678   2.828   7.153 -0.1703 -0.2363  0.1228
20965SOL    HW164336   4.682   2.909   7.103 -0.1762  0.0498  0.5759
20965SOL    HW264337   4.696   2.759   7.090  1.1306  0.2062 -0.0206
20966SOL     OW64338   0.676   1.290   4.654 -0.3553  0.4809 -0.0964
20966SOL    HW164339   0.709   1.378   4.674  0.2363  0.3006 -0.2497
20966SOL    HW264340   0.603   1.305   4.594  0.8754  0.7895 -1.5681
20967SOL     OW64341   7.299   7.963   7.923 -0.1713  0.3570  0.2114
20967SOL    HW164342   7.267   8.050   7.947  0.9902  0.9502 -0.2735
20967SOL    HW264343   7.354   7.979   7.846 -0.5122 -0.9177 -0.3130
20968SOL     OW64344   4.090   7.333   2.573 -0.0630 -0.5234 -0.4797
20968SOL    HW164345   4.069   7.371   2.488  1.1345  0.3223 -0.4239
20968SOL    HW264346   4.068   7.403   2.636 -0.3341 -0.9060 -0.1401
20969SOL     OW64347   4.890   0.169   8.273  0.3907  0.1032  0.9822
20969SOL    HW164348   4.950   0.100   8.302  0.8990 -0.3372 -0.9269
20969SOL    HW264349   4.872   0.147   8.181 -1.0870  1.3765  0.9349
20970SOL     OW64350   4.836   7.395   2.297 -0.0842  0.4161 -0.0240
20970SOL    HW164351   4.809   7.304   2.314 -2.3965  0.8091 -1.1716
20970SOL    HW264352   4.801   7.444   2.371  0.0200  0.5544 -0.0662
20971SOL     OW64353   1.891   2.554   8.091  0.3676 -0.3171 -0.1945
20971SOL    HW164354   1.821   2.577   8.030 -0.0433 -0.1514  0.3289
20971SOL    HW264355   1.855   2.573   8.178  0.9677 -0.4755  0.1002
20972SOL     OW64356   1.163   4.341   5.303  0.3787  0.2358  0.4613
20972SOL    HW164357   1.233   4.307   5.246 -2.0844  1.6093 -3.8384
20972SOL    HW264358   1.209   4.380   5.377  3.9695 -0.9814 -0.9079
20973SOL     OW64359   6.081   3.767   3.795  0.5039  0.9315 -0.5804
20973SOL    HW164360   6.091   3.672   3.788  1.2887  0.8769  0.8460
20973SOL    HW264361   5.996   3.785   3.757  0.4132 -0.3309 -1.0236
20974SOL     OW64362   3.623   4.934   8.502 -0.6109 -0.5556  0.1814
20974SOL    HW164363   3.566   5.001   8.540 -0.9049 -0.3923 -0.5182
20974SOL    HW264364   3.698   4.983   8.468 -0.1176 -0.7531  0.9589
20975SOL     OW64365   3.914   1.431  11.956 -0.0587 -0.1611 -0.1156
20975SOL    HW164366   3.948   1.457  11.871  1.6592  0.6514  0.7850
20975SOL    HW264367   3.836   1.379  11.935  0.9050 -0.8724 -2.2082
20976SOL     OW64368   2.572   1.245  12.144  0.5026 -0.2039  0.0840
20976SOL    HW164369   2.626   1.201  12.078 -1.1997 -1.2694 -0.6676
20976SOL    HW264370   2.539   1.323  12.099  1.9469  0.8668  0.7890
20977SOL     OW64371   7.205   6.568  11.421  0.0067  0.5294 -0.7069
20977SOL    HW164372   7.219   6.651  11.466 -0.6165  0.7934 -0.9952
20977SOL    HW264373   7.113   6.570  11.394 -0.4806 -0.9657  0.7015
20978SOL     OW64374   5.887   1.933   9.950  0.3802 -0.0251 -0.1015
20978SOL    HW164375   5.824   1.863   9.930 -0.3062  0.3853  0.5420
20978SOL    HW264376   5.833   2.004   9.986  1.1031  0.7253 -0.4761
20979SOL     OW64377   1.568   6.490   3.219 -0.4669  0.2065 -0.4553
20979SOL    HW164378   1.611   6.425   3.274 -1.9128 -0.2989  0.1351
20979SOL    HW264379   1.554   6.565   3.277 -1.5084 -0.1212 -0.2615
20980SOL     OW64380   5.649   4.847   2.672 -0.0784  0.0525 -0.4145
20980SOL    HW164381   5.612   4.763   2.698 -1.5287  0.9489  0.5993
20980SOL    HW264382   5.584   4.884   2.612  0.5675  0.4323 -0.8893
20981SOL     OW64383   6.859   5.508  10.967 -0.2327  0.1603 -0.0514
20981SOL    HW164384   6.784   5.524  10.910  1.2908  0.1574 -2.1627
20981SOL    HW264385   6.824   5.456  11.040 -2.2606  0.1815 -0.9680
20982SOL     OW64386   7.017   2.420  12.401 -0.2417  0.2530  0.1151
20982SOL    HW164387   7.111   2.430  12.395 -0.2227  0.5686  0.7612
20982SOL    HW264388   6.998   2.429  12.495 -1.1581  2.5239 -0.2196
20983SOL     OW64389   1.198   0.236  11.151 -0.4437 -0.3888 -0.2677
20983SOL    HW164390   1.195   0.305  11.084 -1.4106  0.7054  0.8414
20983SOL    HW264391   1.273   0.259  11.206 -1.0419  0.0807  0.3769
20984SOL     OW64392   7.160   4.724   9.642  0.1223 -0.2288  0.1393
20984SOL    HW164393   7.157   4.805   9.693  2.2595  0.1170 -0.1833
20984SOL    HW264394   7.156   4.753   9.550 -0.4542 -0.6107  0.0352
20985SOL     OW64395   0.700   6.691   8.831 -0.4284  0.6757  0.6819
20985SOL    HW164396   0.699   6.616   8.891 -0.1739 -2.0722 -2.4236
20985SOL    HW264397   0.608   6.700   8.804 -0.8147  2.8906  2.4387
20986SOL     OW64398   5.104   3.439   2.594  0.3057  0.3092  0.1534
20986SOL    HW164399   5.168   3.483   2.539 -1.1461  1.0554 -1.0119
20986SOL    HW264400   5.020   3.456   2.552 -0.6441 -0.9114  1.4428
20987SOL     OW64401   2.149   4.275   5.174  0.0134 -0.4831  0.2774
20987SOL    HW164402   2.193   4.359   5.163 -0.5455 -0.3406 -1.1408
20987SOL    HW264403   2.091   4.288   5.250 -0.2715  0.5148 -0.0864
20988SOL     OW64404   5.996   5.642  10.972 -0.0906 -0.3697  0.1166
20988SOL    HW164405   5.964   5.716  10.921 -0.1499  0.5764  1.4658
20988SOL    HW264406   5.938   5.570  10.950  0.4155 -0.2450 -1.7833
20989SOL     OW64407   1.323   5.047   8.669  0.4327  0.0730 -0.6672
20989SOL    HW164408   1.395   5.104   8.696  0.8617 -0.9507  0.4383
20989SOL    HW264409   1.303   5.074   8.580  0.9963  1.5653 -0.3691
20990SOL     OW64410   3.390   1.968   3.614 -0.1588  0.1070 -0.0063
20990SOL    HW164411   3.401   2.052   3.659  0.0975  0.4633 -0.7026
20990SOL    HW264412   3.295   1.953   3.614 -0.0402 -0.8829  2.3545
20991SOL     OW64413   3.154   7.469   7.256 -0.1475 -0.5357  0.7936
20991SOL    HW164414   3.109   7.442   7.176  1.2272 -0.8872  0.0963
20991SOL    HW264415   3.238   7.424   7.252  0.4922  0.5230  1.7564
20992SOL     OW64416   2.133   2.527   5.961  0.2539 -0.4188 -0.4431
20992SOL    HW164417   2.039   2.525   5.943 -0.2250 -1.6422  1.7985
20992SOL    HW264418   2.143   2.472   6.038  2.3847  2.1078  1.2708
20993SOL     OW64419   6.564   6.606   3.501 -0.4044 -0.0745 -0.1679
20993SOL    HW164420   6.585   6.699   3.504  0.0673 -0.2047  2.6358
20993SOL    HW264421   6.639   6.567   3.455 -0.3235  0.8358 -0.8411
20994SOL     OW64422   6.797   5.640   6.605  0.2835  0.3153 -0.0012
20994SOL    HW164423   6.776   5.548   6.593 -0.0194  0.5681 -1.5614
20994SOL    HW264424   6.856   5.661   6.533  0.4491  1.3224  0.4048
20995SOL     OW64425   2.754   5.986   0.464  0.4309  0.1069  0.7423
20995SOL    HW164426   2.781   5.956   0.377  1.0569 -1.8969  1.5833
20995SOL    HW264427   2.822   6.049   0.489  0.6964  0.0738  0.1278
20996SOL     OW64428   1.890   6.789   2.655  0.4520 -0.0420  0.2073
20996SOL    HW164429   1.941   6.723   2.608 -0.6050  0.2579 -1.4646
20996SOL    HW264430   1.899   6.869   2.603  0.0910  0.5960  1.0980
20997SOL     OW64431   3.049   0.597   9.724  0.4572  0.1413  0.0154
20997SOL    HW164432   2.985   0.666   9.709 -0.7190 -0.8062  0.5175
20997SOL    HW264433   3.078   0.609   9.814 -0.7052 -0.7660  0.5271
20998SOL     OW64434   4.118   3.361  10.571  0.0481  0.0784 -0.0045
20998SOL    HW164435   4.067   3.284  10.546  0.4679  0.2899 -1.6099
20998SOL    HW264436   4.157   3.338  10.656  0.7575 -1.7713 -0.7838
20999SOL     OW64437   2.052   4.106   7.597 -0.0614  0.1741 -0.3660
20999SOL    HW164438   2.079   4.094   7.506 -1.0543 -0.6569 -0.5778
20999SOL    HW264439   2.120   4.062   7.648  0.0848 -0.0544 -0.7543
21000SOL     OW64440   6.336   5.993   2.129  0.5811  0.0519 -0.2122
21000SOL    HW164441   6.249   5.968   2.162 -0.8670  1.5770 -2.5767
21000SOL    HW264442   6.379   5.910   2.111 -3.1090 -1.2619 -5.4956
21001SOL     OW64443   5.374   1.037   3.742 -0.0898 -0.2340  0.3059
21001SOL    HW164444   5.301   1.074   3.691 -1.9156  0.3582  3.1504
21001SOL    HW264445   5.346   0.948   3.762  1.7815 -1.3867 -1.7286
21002SOL     OW64446   6.455   3.332   6.171  0.2858 -0.4015  0.0116
21002SOL    HW164447   6.397   3.403   6.145  1.0775  0.0644 -0.5463
21002SOL    HW264448   6.493   3.361   6.254  1.6238  0.4718 -0.8690
21003SOL     OW64449   6.895   2.088   3.186  0.2112 -0.5994 -0.8480
21003SOL    HW164450   6.835   2.015   3.173  0.2209 -0.4732 -1.6464
21003SOL    HW264451   6.839   2.163   3.204  0.1692 -0.6659 -0.7048
21004SOL     OW64452   2.746   2.420  10.813  0.1351  0.1612  0.0336
21004SOL    HW164453   2.719   2.338  10.855  0.7787  0.5225  1.2098
21004SOL    HW264454   2.804   2.462  10.877  0.2167  1.3047 -0.7512
21005SOL     OW64455   4.187   1.558   4.859  0.1416 -0.1856  0.0057
21005SOL    HW164456   4.101   1.529   4.828  0.7206 -0.2914 -1.6078
21005SOL    HW264457   4.236   1.478   4.875 -0.0128 -0.1240  0.8128
21006SOL     OW64458   2.162   1.793  10.871  0.1293 -0.7771  0.1938
21006SOL    HW164459   2.161   1.807  10.965  0.6163  0.2341  0.0562
21006SOL    HW264460   2.253   1.809  10.845 -0.1596 -0.2843 -0.5535
21007SOL     OW64461   3.007   0.127  12.226 -0.5403  0.2148 -0.2593
21007SOL    HW164462   2.957   0.206  12.208 -1.3705 -0.3253 -0.3404
21007SOL    HW264463   3.051   0.106  12.144  0.3064  1.0067 -0.0365
21008SOL     OW64464   7.515   2.683  10.113  0.0016 -0.4816  0.1195
21008SOL    HW164465   7.445   2.666  10.050  0.3273  1.5847 -0.9018
21008SOL    HW264466   7.538   2.597  10.148 -1.0664 -1.5527 -1.6715
21009SOL     OW64467   0.137   6.529   6.138  0.2604 -0.3739 -0.3494
21009SOL    HW164468   0.050   6.488   6.136 -1.1140  2.2805  0.2970
21009SOL    HW264469   0.127   6.611   6.090  2.7917 -0.5389 -1.3255
21010SOL     OW64470   0.413   0.215   7.048  0.0091  0.1621 -0.4786
21010SOL    HW164471   0.500   0.186   7.020  1.2180  2.1859  0.9334
21010SOL    HW264472   0.408   0.190   7.140 -1.0514 -0.1901 -0.6183
21011SOL     OW64473   5.395   0.641  11.588 -0.0161  0.0826 -0.3673
21011SOL    HW164474   5.446   0.657  11.667 -0.6185  1.3052 -0.2083
21011SOL    HW264475   5.369   0.549  11.594 -0.7135  0.3619  1.2551
21012SOL     OW64476   6.707   7.347  11.831 -0.6371 -0.5106 -0.1826
21012SOL    HW164477   6.632   7.327  11.887 -0.6577  0.9180  0.3421
21012SOL    HW264478   6.783   7.332  11.886 -0.6277  0.1240 -0.0148
21013SOL     OW64479   6.963   1.519  10.290  0.3175 -0.0736  0.0624
21013SOL    HW164480   6.921   1.480  10.214 -1.7945  1.9506  0.1051
21013SOL    HW264481   6.998   1.602  10.258 -0.5042  0.7515  1.2534
21014SOL     OW64482   4.376   5.713   0.788  0.2559 -0.2263 -0.0429
21014SOL    HW164483   4.304   5.666   0.829  0.9154  0.2600  1.7361
21014SOL    HW264484   4.453   5.657   0.799  1.0543  1.1711  2.1212
21015SOL     OW64485   7.599   2.911  11.357 -0.7440  0.5068 -0.1181
21015SOL    HW164486   7.607   2.825  11.317 -0.9221  0.4016  0.0723
21015SOL    HW264487   7.566   2.967  11.286  1.5085  0.9414 -0.8981
21016SOL     OW64488   2.218   2.319   2.362  0.0860 -0.1933  0.1178
21016SOL    HW164489   2.166   2.329   2.442 -0.4051  0.5824 -0.2752
21016SOL    HW264490   2.308   2.337   2.389  0.3177 -2.4391  0.9899
21017SOL     OW64491   0.224   6.798   0.979 -0.1746 -0.4347 -0.3010
21017SOL    HW164492   0.288   6.848   0.928 -0.1066 -0.9212 -0.6990
21017SOL    HW264493   0.218   6.845   1.062 -0.0701  0.1991 -0.6480
21018SOL     OW64494   5.302   5.072   1.807  0.3980 -0.0938 -0.1165
21018SOL    HW164495   5.289   4.982   1.779 -3.2415  0.2360 -0.0221
21018SOL    HW264496   5.391   5.075   1.842  0.8206 -3.4671 -0.6370
21019SOL     OW64497   7.786   0.419  10.002 -0.1581  0.6658  0.4565
21019SOL    HW164498   7.724   0.453  10.066 -0.4927  0.2304  0.3678
21019SOL    HW264499   7.771   0.471   9.923  0.6369  1.5797  0.8858
21020SOL     OW64500   1.457   6.650   0.420 -0.3470 -0.2060  0.4907
21020SOL    HW164501   1.549   6.631   0.402 -0.2253  0.7860 -0.0234
21020SOL    HW264502   1.425   6.692   0.341 -1.3481 -0.8427  0.5410
21021SOL     OW64503   2.640   2.581   0.995 -0.1523 -0.0113 -0.0608
21021SOL    HW164504   2.663   2.572   1.088 -1.5683  2.6829  0.6605
21021SOL    HW264505   2.547   2.558   0.991 -0.2031  0.3063 -0.7348
21022SOL     OW64506   2.048   4.095   6.267 -0.4346 -0.4084  0.3573
21022SOL    HW164507   2.007   4.018   6.229  0.8454 -0.8983 -0.1124
21022SOL    HW264508   2.142   4.083   6.250 -0.2164  1.3629  0.0450
21023SOL     OW64509   0.783   2.656   0.198 -0.2264  0.0405 -0.0694
21023SOL    HW164510   0.812   2.602   0.271  0.9297  1.1718  0.3405
21023SOL    HW264511   0.734   2.596   0.142  1.6517 -1.6251 -0.0332
21024SOL     OW64512   0.273   3.278   2.627  0.1137  0.0965 -0.3609
21024SOL    HW164513   0.350   3.281   2.685 -1.7489 -0.8850  2.3667
21024SOL    HW264514   0.251   3.185   2.621 -1.0354  0.3817 -0.8413
21025SOL     OW64515   2.756   7.752   4.540 -0.0912 -0.2993  0.4404
21025SOL    HW164516   2.792   7.756   4.451 -1.1986  1.5027  0.0387
21025SOL    HW264517   2.693   7.823   4.544  0.8602  0.5108  3.0900
21026SOL     OW64518   1.655   3.462   1.156  0.7923  0.2241 -0.0952
21026SOL    HW164519   1.691   3.550   1.155  0.1956  0.4865 -1.4680
21026SOL    HW264520   1.732   3.405   1.145  1.1850  0.5524  0.8614
21027SOL     OW64521   3.883   2.794  11.186  0.0106  0.6661 -1.2847
21027SOL    HW164522   3.887   2.867  11.124 -2.1995  0.5116 -1.6953
21027SOL    HW264523   3.818   2.735  11.148  1.4744 -1.3638 -0.7666
21028SOL     OW64524   2.373   1.806  11.106 -0.3946 -0.0533 -0.0672
21028SOL    HW164525   2.443   1.797  11.041 -0.0364  0.9103  0.1628
21028SOL    HW264526   2.335   1.718  11.113 -1.9816  0.2258 -3.2508
21029SOL     OW64527   7.091   7.142   6.996 -0.2360 -0.2775 -0.2122
21029SOL    HW164528   7.135   7.094   6.926 -1.1948 -0.7340 -0.5300
21029SOL    HW264529   7.029   7.199   6.951 -1.3752 -1.0928  0.2459
21030SOL     OW64530   5.503   3.311   3.527  0.2334  0.1437  0.7657
21030SOL    HW164531   5.584   3.345   3.489 -0.2682 -0.3650 -0.8818
21030SOL    HW264532   5.437   3.376   3.505 -0.3674 -0.9114 -0.7195
21031SOL     OW64533   1.909   0.807  11.584  0.8454 -0.2853 -0.1807
21031SOL    HW164534   1.827   0.759  11.594 -0.6488  2.1735  0.0967
21031SOL    HW264535   1.910   0.833  11.492  1.3269 -0.3216 -0.1867
21032SOL     OW64536   1.139   4.246   8.308  0.2232 -0.9703  0.1584
21032SOL    HW164537   1.095   4.265   8.392  0.7006 -1.4134  0.5139
21032SOL    HW264538   1.152   4.151   8.309  3.4303 -0.6089  1.2015
21033SOL     OW64539   1.419   7.118   7.873  0.0082 -0.2020 -0.1866
21033SOL    HW164540   1.324   7.121   7.875  0.0006  0.7199 -0.9276
21033SOL    HW264541   1.440   7.078   7.788  0.2903 -1.4597  0.4542
21034SOL     OW64542   3.879   6.508   7.009 -0.2097  0.6915  0.0377
21034SOL    HW164543   3.857   6.456   7.086  0.5846 -0.0536 -0.2213
21034SOL    HW264544   3.902   6.443   6.942 -1.0197  1.3214 -0.8808
21035SOL     OW64545   4.367   2.457   9.676 -0.4062 -0.2648  0.3581
21035SOL    HW164546   4.284   2.447   9.629 -0.9156 -2.6767  1.5626
21035SOL    HW264547   4.396   2.546   9.657 -2.0677 -0.1423 -2.0098
21036SOL     OW64548   2.161   3.358   5.891 -0.1732 -0.1023  0.6112
21036SOL    HW164549   2.091   3.319   5.943 -0.9919  1.0659  0.4151
21036SOL    HW264550   2.154   3.316   5.805 -0.4472 -0.1881  0.6744
21037SOL     OW64551   3.632   6.205   1.167 -0.0907 -0.3159 -0.1452
21037SOL    HW164552   3.542   6.189   1.140 -0.3955 -0.5200  0.9306
21037SOL    HW264553   3.669   6.259   1.098 -1.0468 -0.2022 -0.5801
21038SOL     OW64554   3.029   4.206   9.362  0.1435  0.0343  0.7073
21038SOL    HW164555   2.941   4.213   9.397 -0.1665 -1.2294  0.2479
21038SOL    HW264556   3.030   4.265   9.286 -0.1586  0.4073  0.9942
21039SOL     OW64557   3.631   6.971  11.121  0.0471  0.2449  0.4675
21039SOL    HW164558   3.709   6.915  11.123  1.6967  2.3478 -0.9754
21039SOL    HW264559   3.619   6.997  11.212  0.2016 -1.1744  0.9179
21040SOL     OW64560   4.875   0.844   5.383 -0.4416 -0.1383 -0.0884
21040SOL    HW164561   4.938   0.855   5.312  1.1085  0.4154  1.3325
21040SOL    HW264562   4.865   0.749   5.391 -0.1342 -0.2196 -0.5895
21041SOL     OW64563   5.426   3.705   2.833 -0.6061 -0.3424 -0.0204
21041SOL    HW164564   5.487   3.669   2.768  0.3769 -0.7342  1.0872
21041SOL    HW264565   5.440   3.799   2.830  1.6584 -0.5474  1.6980
21042SOL     OW64566   2.634   2.241   9.173 -0.0145 -0.0241  0.9648
21042SOL    HW164567   2.651   2.156   9.212  2.0847 -1.3923 -2.5118
21042SOL    HW264568   2.706   2.296   9.202 -0.0942 -0.1336  1.3676
21043SOL     OW64569   4.312   6.425   7.162 -0.6286 -0.1443 -0.3098
21043SOL    HW164570   4.362   6.407   7.241  0.6353 -0.7335 -1.2187
21043SOL    HW264571   4.272   6.341   7.139 -1.3233  0.1166 -0.0959
21044SOL     OW64572   1.652   6.739   8.483  0.1005  0.0091  0.1119
21044SOL    HW164573   1.677   6.805   8.419 -0.1774 -0.8457 -0.9111
21044SOL    HW264574   1.703   6.761   8.562 -1.0478  2.2477  0.2937
21045SOL     OW64575   2.176   2.363  12.214  0.4650 -0.2493 -0.3192
21045SOL    HW164576   2.187   2.458  12.215 -0.6460 -0.1182  0.3430
21045SOL    HW264577   2.263   2.329  12.237  0.3359  0.6675  1.7462
21046SOL     OW64578   3.535   1.349   6.323 -0.1130  0.4774  0.5222
21046SOL    HW164579   3.606   1.378   6.381  0.1561 -1.0686  1.0169
21046SOL    HW264580   3.497   1.273   6.368  1.4311 -2.1245 -2.1691
21047SOL     OW64581   3.662   1.543   7.055  0.4480  0.0097  0.1546
21047SOL    HW164582   3.742   1.552   7.107  0.7650 -1.4497 -0.0441
21047SOL    HW264583   3.614   1.472   7.097 -0.3145  0.2519 -0.2869
21048SOL     OW64584   6.718   4.973   4.544 -0.3560  0.1537 -0.7380
21048SOL    HW164585   6.647   4.927   4.500 -0.8981  0.5272 -0.2665
21048SOL    HW264586   6.748   4.912   4.611 -1.8257  0.8808  0.6395
21049SOL     OW64587   5.854   1.921   5.801  0.1621  0.3863 -0.4248
21049SOL    HW164588   5.816   1.850   5.750 -1.4617  0.1876  0.9391
21049SOL    HW264589   5.902   1.878   5.871 -2.8064  0.4199  1.8601
21050SOL     OW64590   2.061   3.133   5.097 -0.6395 -0.4439  0.0208
21050SOL    HW164591   2.024   3.203   5.044  1.6444  1.5393  0.8713
21050SOL    HW264592   2.100   3.072   5.033 -1.9880 -0.5791 -0.6996
21051SOL     OW64593   6.003   0.870   1.885  0.2012 -0.8221  0.1087
21051SOL    HW164594   5.932   0.908   1.938  0.9696  0.8045  0.0560
21051SOL    HW264595   6.020   0.936   1.818  3.0431 -0.2390  1.2777
21052SOL     OW64596   4.187   3.355   2.719  0.4164  0.3677 -0.2601
21052SOL    HW164597   4.188   3.447   2.742  1.8055  0.2350  0.2620
21052SOL    HW264598   4.097   3.339   2.689 -0.1362  1.6235  0.6501
21053SOL     OW64599   7.303   4.181   4.606 -0.5217  0.6792  0.1425
21053SOL    HW164600   7.255   4.181   4.689 -1.9065 -1.9744 -0.5472
21053SOL    HW264601   7.395   4.186   4.632 -0.9023 -0.5280  1.8803
21054SOL     OW64602   1.094   5.107   4.423 -0.1535  0.4835 -0.0874
21054SOL    HW164603   1.147   5.055   4.363  1.3903  3.6222 -1.7168
21054SOL    HW264604   1.156   5.146   4.484 -1.2581  0.3474  1.1881
21055SOL     OW64605   5.088   5.754  10.291 -0.1272  1.0356  0.1306
21055SOL    HW164606   5.173   5.717  10.312 -0.0182  1.9626  1.4050
21055SOL    HW264607   5.032   5.730  10.365 -1.5791 -1.3092 -1.5869
21056SOL     OW64608   0.872   5.573   9.171 -0.0687 -0.3189  0.1678
21056SOL    HW164609   0.939   5.641   9.181 -0.4870  0.2117 -0.5449
21056SOL    HW264610   0.829   5.570   9.257 -0.9926  1.3468 -0.1822
21057SOL     OW64611   4.165   3.482   3.893 -0.2424 -0.0413  0.2833
21057SOL    HW164612   4.171   3.446   3.981  1.1929  0.3139  0.3387
21057SOL    HW264613   4.099   3.552   3.900 -0.5173 -0.3568  0.9416
21058SOL     OW64614   3.545   7.720  11.326  0.1788 -0.3230 -0.4558
21058SOL    HW164615   3.636   7.734  11.350  0.0879 -0.8558  0.2427
21058SOL    HW264616   3.500   7.704  11.409 -0.8265  1.3499 -0.6443
21059SOL     OW64617   6.273   4.115   8.198  0.2076 -0.0778  0.0335
21059SOL    HW164618   6.273   4.062   8.118  2.3001  1.2058 -0.9149
21059SOL    HW264619   6.355   4.164   8.194 -0.8842  2.0523  1.6432
21060SOL     OW64620   6.504   5.369   2.975  0.3646  0.0463 -0.1996
21060SOL    HW164621   6.588   5.399   3.008  0.6172  0.6680 -1.3850
21060SOL    HW264622   6.523   5.330   2.890 -0.3255 -1.2437  0.1991
21061SOL     OW64623   0.841   7.281  12.419 -0.4808 -0.3107  0.1662
21061SOL    HW164624   0.874   7.242  12.338 -0.2005  0.2928 -0.0142
21061SOL    HW264625   0.746   7.283  12.408 -0.3570  2.6722 -1.5554
21062SOL     OW64626   6.809   2.527  10.221 -0.1806 -0.2121  0.0502
21062SOL    HW164627   6.774   2.566  10.302 -0.8000 -0.4573 -0.0966
21062SOL    HW264628   6.767   2.442  10.215  1.2320 -0.9736  0.4130
21063SOL     OW64629   3.217   3.449   4.565 -0.2372 -0.0013  0.2354
21063SOL    HW164630   3.299   3.420   4.605  0.0010  1.4654  0.8875
21063SOL    HW264631   3.224   3.423   4.473  0.6269 -0.5486  0.4428
21064SOL     OW64632   6.336   4.655   5.321 -0.6739  0.1418 -1.1039
21064SOL    HW164633   6.258   4.674   5.269 -1.5489 -0.7426 -0.1472
21064SOL    HW264634   6.306   4.657   5.412  0.0730 -1.6379 -0.7787
21065SOL     OW64635   6.752   1.903  11.567 -0.6020  0.0792  0.0670
21065SOL    HW164636   6.790   1.989  11.550 -0.3196 -0.2033 -0.7928
21065SOL    HW264637   6.658   1.915  11.553 -0.6395  0.3810  0.5411
21066SOL     OW64638   2.219   3.478  12.381  0.6689 -0.4758 -0.7862
21066SOL    HW164639   2.182   3.561  12.349  0.6987 -0.0153  0.3398
21066SOL    HW264640   2.243   3.496  12.472  0.2810 -1.8485 -0.3959
21067SOL     OW64641   2.616   2.135   7.109  0.0877 -0.5559  0.0132
21067SOL    HW164642   2.522   2.155   7.116  0.4533  1.5727 -0.6280
21067SOL    HW264643   2.624   2.088   7.027 -0.3698 -0.4199 -0.1145
21068SOL     OW64644   3.944   7.850   9.556 -0.1757  0.3999  0.1590
21068SOL    HW164645   3.898   7.934   9.564  0.2072  0.6428 -0.1715
21068SOL    HW264646   4.029   7.865   9.598  0.1059  0.3483 -0.3834
21069SOL     OW64647   3.005   4.212  12.268 -0.1831  0.1142 -0.3587
21069SOL    HW164648   2.951   4.267  12.325  1.9061  1.3391  0.5326
21069SOL    HW264649   3.084   4.194  12.319 -0.2450 -2.7773 -1.0798
21070SOL     OW64650   0.496   0.276   6.175 -0.0938  0.4056 -0.7935
21070SOL    HW164651   0.411   0.298   6.137  0.4190  0.2929 -2.0275
21070SOL    HW264652   0.538   0.219   6.111  0.6869 -0.0206  0.0639
21071SOL     OW64653   1.354   7.837   8.200 -0.3076  0.0930 -0.1023
21071SOL    HW164654   1.410   7.762   8.222 -2.9795 -1.5452  1.7224
21071SOL    HW264655   1.371   7.900   8.269 -2.9989 -1.8443  2.5880
21072SOL     OW64656   6.880   1.435   4.281  0.1002  0.3669 -0.0884
21072SOL    HW164657   6.842   1.516   4.318 -1.5903 -0.8497  1.0120
21072SOL    HW264658   6.865   1.443   4.187 -1.4271  0.7220  0.1490
21073SOL     OW64659   3.755   4.251  11.831  0.7640  0.2385  0.0129
21073SOL    HW164660   3.775   4.300  11.752 -1.3888  2.2172  0.5639
21073SOL    HW264661   3.775   4.160  11.809  3.3112  1.1065 -1.6402
21074SOL     OW64662   4.882   3.687   3.801 -0.7343  0.5782  0.1100
21074SOL    HW164663   4.841   3.601   3.808 -1.1908  0.8155  0.4330
21074SOL    HW264664   4.889   3.703   3.707 -3.3488  1.4297 -0.0237
21075SOL     OW64665   7.729   7.690  10.564 -0.3067 -0.1846 -0.0096
21075SOL    HW164666   7.807   7.716  10.515 -0.3391 -0.5947 -0.2820
21075SOL    HW264667   7.660   7.683  10.498 -0.3658 -0.6750  0.1000
21076SOL     OW64668   6.085   3.059   4.229 -0.0161  0.3618  0.3891
21076SOL    HW164669   6.068   3.118   4.303 -3.0309  0.6697 -0.3726
21076SOL    HW264670   6.029   2.983   4.245 -0.3311  0.1956 -1.2601
21077SOL     OW64671   0.954   5.853   8.620 -0.1914  0.6265  0.0928
21077SOL    HW164672   1.029   5.857   8.680 -1.7297 -1.4366  2.3189
21077SOL    HW264673   0.883   5.817   8.673 -1.8754 -0.6450 -2.8255
21078SOL     OW64674   6.606   7.007  10.923 -0.0320 -0.1988 -0.0680
21078SOL    HW164675   6.676   6.986  10.861 -0.4019 -0.3915 -0.4247
21078SOL    HW264676   6.639   6.975  11.008  0.1593 -0.6136 -0.2954
21079SOL     OW64677   7.311   6.308   4.949 -0.5186 -0.4736 -0.6869
21079SOL    HW164678   7.316   6.334   5.041 -1.6432  0.6168 -0.9048
21079SOL    HW264679   7.349   6.381   4.901  1.9488 -1.8702 -1.0392
21080SOL     OW64680   0.665   6.627   3.911 -0.0899 -0.1226 -0.1152
21080SOL    HW164681   0.625   6.674   3.984 -0.7929 -1.4497  0.3803
21080SOL    HW264682   0.594   6.615   3.848  0.2851  0.1785 -0.6026
21081SOL     OW64683   5.765   2.703   8.652 -0.5196 -0.0687 -0.1754
21081SOL    HW164684   5.776   2.631   8.715 -2.2082 -1.5741 -1.4808
21081SOL    HW264685   5.716   2.770   8.699  1.7697  0.6904  1.3226
21082SOL     OW64686   2.403   4.562   2.298  0.3430 -0.1125 -0.0829
21082SOL    HW164687   2.368   4.488   2.249  0.5050  0.2322 -0.7303
21082SOL    HW264688   2.498   4.555   2.288  0.4652 -0.8155  1.3283
21083SOL     OW64689   7.759   7.175   7.674 -0.1696 -0.4223  0.1614
21083SOL    HW164690   7.775   7.100   7.616  1.2910  0.0301 -0.0428
21083SOL    HW264691   7.669   7.162   7.704 -1.3688 -0.1640 -2.9272
21084SOL     OW64692   5.545   2.731  11.423  0.6079  0.2392  0.1990
21084SOL    HW164693   5.626   2.780  11.415 -0.0917  1.2351 -1.2333
21084SOL    HW264694   5.483   2.792  11.463 -0.2353  0.5723 -1.4918
21085SOL     OW64695   3.653   5.576   4.686 -0.2497  0.0654 -0.6828
21085SOL    HW164696   3.694   5.524   4.617 -1.4673 -0.7393 -0.8382
21085SOL    HW264697   3.700   5.659   4.685  0.4641 -0.3296 -1.7498
21086SOL     OW64698   5.739   3.945   1.270 -0.5880 -0.1570 -0.0312
21086SOL    HW164699   5.652   3.977   1.249  0.1983  0.4384 -2.6744
21086SOL    HW264700   5.779   4.015   1.322 -0.9887  0.4550 -0.5418
21087SOL     OW64701   1.618   2.275  11.559  0.5612  0.3816 -0.2110
21087SOL    HW164702   1.682   2.313  11.619  0.6461 -0.2377  0.0916
21087SOL    HW264703   1.670   2.223  11.498  0.3622  0.0313 -0.0813
21088SOL     OW64704   1.018   6.355  11.501  0.2498  1.0820 -0.1537
21088SOL    HW164705   0.983   6.444  11.502  1.9272  1.7564  0.8033
21088SOL    HW264706   0.968   6.309  11.569 -1.0899  1.0533 -1.1002
21089SOL     OW64707   4.034   3.227  10.274 -0.0231 -0.4312 -0.4520
21089SOL    HW164708   4.025   3.214  10.369 -0.0189  1.1517 -0.2168
21089SOL    HW264709   3.945   3.219  10.240 -0.2005  0.1882 -0.1451
21090SOL     OW64710   6.913   1.178  10.260 -0.2451  0.2838  0.2373
21090SOL    HW164711   7.008   1.175  10.273  0.0572 -0.9279 -1.7249
21090SOL    HW264712   6.876   1.156  10.345  1.2344  0.3668  0.9381
21091SOL     OW64713   2.770   0.832  10.688 -0.1509 -0.2748  0.2193
21091SOL    HW164714   2.828   0.756  10.684  0.1019 -0.0779 -3.6231
21091SOL    HW264715   2.691   0.805  10.641 -0.9818  1.1729  0.6885
21092SOL     OW64716   5.986   4.650   7.692  0.1532 -0.5565 -0.0742
21092SOL    HW164717   5.990   4.556   7.712  0.5090 -0.5624 -0.1806
21092SOL    HW264718   5.913   4.682   7.746 -0.2060 -0.9618 -0.3149
21093SOL     OW64719   0.336   6.571   2.363 -0.1471 -0.2803 -0.0795
21093SOL    HW164720   0.345   6.645   2.424 -1.4489 -1.7121  1.9751
21093SOL    HW264721   0.400   6.590   2.294  1.0829  1.6896  1.4565
21094SOL     OW64722   0.039   7.298   0.830  0.2150  0.2437  0.2600
21094SOL    HW164723   0.003   7.229   0.774 -0.4603  1.2170 -0.5390
21094SOL    HW264724  -0.037   7.331   0.879  0.5139  0.4828  0.5673
21095SOL     OW64725   0.648   5.607   5.743  0.3014 -0.8894 -0.4692
21095SOL    HW164726   0.697   5.683   5.775  0.0980 -0.9098 -0.1017
21095SOL    HW264727   0.636   5.552   5.821 -0.0304 -1.0355 -0.6214
21096SOL     OW64728   3.573   4.795   8.249 -0.0699  0.5809  0.1193
21096SOL    HW164729   3.561   4.832   8.337 -0.3665 -1.2619  0.8870
21096SOL    HW264730   3.488   4.805   8.208 -1.2688 -2.3735  1.6088
21097SOL     OW64731   5.467   7.057   0.226 -0.4368 -0.1232  0.3103
21097SOL    HW164732   5.429   7.066   0.313  0.1578  0.7465  0.4993
21097SOL    HW264733   5.448   7.141   0.183 -0.0991 -0.2726 -0.1428
21098SOL     OW64734   5.042   1.399   9.172  0.6149  0.2263  0.1976
21098SOL    HW164735   5.004   1.369   9.089  1.3489  1.0504 -0.4584
21098SOL    HW264736   5.036   1.324   9.230  0.5948 -0.5427 -0.7823
21099SOL     OW64737   2.694   1.857   5.964  0.1517 -0.0739 -0.8840
21099SOL    HW164738   2.702   1.863   6.059 -2.1534  1.2752 -0.7007
21099SOL    HW264739   2.730   1.939   5.931  0.2764 -0.2281 -1.1389
21100SOL     OW64740   0.822   2.628   1.900 -0.8704 -0.1925  0.7606
21100SOL    HW164741   0.793   2.630   1.809  0.9869 -0.6205  0.1105
21100SOL    HW264742   0.791   2.710   1.937  0.7211  1.3288 -1.0795
21101SOL     OW64743   0.068   7.479   2.064  0.2592  0.1374  0.1847
21101SOL    HW164744   0.034   7.568   2.056  0.9761  0.6949  2.5231
21101SOL    HW264745   0.144   7.488   2.121 -0.3246 -2.1146  1.4424
21102SOL     OW64746   2.366   0.876   6.961  0.3767 -0.4287 -0.4204
21102SOL    HW164747   2.375   0.781   6.972  1.2836 -0.3137 -0.0852
21102SOL    HW264748   2.294   0.886   6.899  0.9556 -1.3749 -1.2722
21103SOL     OW64749   0.022   0.282   3.402 -0.0189  0.5580  0.2615
21103SOL    HW164750   0.086   0.252   3.337 -0.5034 -1.5352  0.6687
21103SOL    HW264751   0.021   0.212   3.468 -0.8980  1.7455  1.5644
21104SOL     OW64752   6.306   4.455   0.756  0.2259 -0.3167  0.7050
21104SOL    HW164753   6.358   4.490   0.828 -2.3407  1.0967  2.0124
21104SOL    HW264754   6.223   4.503   0.761 -0.4980 -1.0259 -2.4749
21105SOL     OW64755   7.769   7.428   0.932  0.2108  0.2040  0.2422
21105SOL    HW164756   7.759   7.460   0.842  0.1864  0.4533  0.3322
21105SOL    HW264757   7.778   7.508   0.985  2.1051  0.0402  0.2389
21106SOL     OW64758   6.101   0.665  11.746  0.3703 -0.2161  0.1807
21106SOL    HW164759   6.188   0.677  11.708  0.0629  0.5663 -0.2964
21106SOL    HW264760   6.118   0.647  11.839  1.0114  0.6939  0.2553
21107SOL     OW64761   1.650   3.675   4.718 -0.6120  0.0037 -0.5528
21107SOL    HW164762   1.666   3.687   4.624 -3.0683  2.4286 -0.7837
21107SOL    HW264763   1.595   3.597   4.724  0.8818 -1.1261 -0.8950
21108SOL     OW64764   7.398   1.914  12.275  0.1615  0.3286  0.1607
21108SOL    HW164765   7.420   1.867  12.195  1.8826 -1.8928  1.8243
21108SOL    HW264766   7.482   1.929  12.319 -0.1608  5.3768 -0.3092
21109SOL     OW64767   4.797   3.557   1.993 -0.7297  0.1033  0.4675
21109SOL    HW164768   4.810   3.474   2.039  0.5027 -0.4206 -0.7541
21109SOL    HW264769   4.707   3.552   1.960 -0.7725 -0.6012  0.6770
21110SOL     OW64770   6.935   1.370   6.225 -0.6686 -0.1249  0.5486
21110SOL    HW164771   6.945   1.418   6.143 -2.2018 -2.0287 -0.8270
21110SOL    HW264772   6.841   1.372   6.243 -0.8423 -2.7481  0.2914
21111SOL     OW64773   7.244   3.246   6.156  0.0312 -0.3772  0.5650
21111SOL    HW164774   7.314   3.220   6.097  1.0489 -0.8786  1.9618
21111SOL    HW264775   7.170   3.265   6.098  1.3963  0.4981 -0.9611
21112SOL     OW64776   4.582   0.337   4.939 -0.3006 -0.4573  0.3047
21112SOL    HW164777   4.575   0.429   4.967  1.0414 -0.3284  0.2912
21112SOL    HW264778   4.560   0.287   5.018  2.7380 -0.0886  1.5425
21113SOL     OW64779   7.844   5.899   2.635  0.1657 -0.2247 -0.5026
21113SOL    HW164780   7.869   5.929   2.723 -0.5711 -0.5523 -0.1674
21113SOL    HW264781   7.748   5.909   2.633  0.0691 -1.1183 -0.9233
21114SOL     OW64782   1.736   2.573  11.954  0.0389  0.2840 -0.1069
21114SOL    HW164783   1.704   2.553  12.042  2.2856 -0.3716  0.6099
21114SOL    HW264784   1.735   2.669  11.950 -1.3073  0.3049  0.1123
21115SOL     OW64785   4.066   1.804  11.632 -0.1112 -0.4253 -0.3614
21115SOL    HW164786   4.092   1.840  11.547 -0.3655 -1.7104 -1.0153
21115SOL    HW264787   4.115   1.855  11.696 -0.2327  0.8507 -1.2480
21116SOL     OW64788   3.856   1.899   0.781  0.2250  0.0122 -0.5464
21116SOL    HW164789   3.829   1.937   0.865  1.0033  0.9972 -0.7238
21116SOL    HW264790   3.815   1.955   0.715  0.2896 -0.2661 -0.8264
21117SOL     OW64791   5.240   3.230   8.119 -0.2389 -0.3234  0.5658
21117SOL    HW164792   5.170   3.193   8.066  0.1557 -0.1862 -0.0595
21117SOL    HW264793   5.195   3.266   8.195 -0.6318 -2.0515  1.1949
21118SOL     OW64794   0.180   1.975   0.707  0.2055  1.0763 -0.1243
21118SOL    HW164795   0.103   2.000   0.759  0.4392  0.8394  0.3405
21118SOL    HW264796   0.152   1.899   0.657 -0.6995  2.5380 -1.9847
21119SOL     OW64797   0.504   5.235   2.420  0.3806 -0.3081 -0.1986
21119SOL    HW164798   0.446   5.309   2.408  1.1171 -0.1023 -3.3195
21119SOL    HW264799   0.467   5.166   2.365  2.0775 -0.7278 -0.8935
21120SOL     OW64800   2.782   3.221   7.260 -0.3515 -0.2188 -0.5288
21120SOL    HW164801   2.797   3.302   7.309 -2.0082 -0.1888 -0.0112
21120SOL    HW264802   2.690   3.200   7.276 -0.4968 -1.1233 -2.2742
21121SOL     OW64803   1.871   6.471   4.029  0.2120  0.1411 -0.1458
21121SOL    HW164804   1.873   6.390   4.080 -0.7338  0.4367  0.4035
21121SOL    HW264805   1.944   6.523   4.063 -0.3288  0.2823  0.8459
21122SOL     OW64806   4.719   2.645   6.949 -0.0742 -0.3544 -0.2039
21122SOL    HW164807   4.650   2.686   6.898 -1.8990  0.7277  2.8776
21122SOL    HW264808   4.719   2.554   6.920 -3.1233 -0.5054 -0.0329
21123SOL     OW64809   4.008   0.777  10.373 -0.3062  0.3869 -0.3300
21123SOL    HW164810   3.990   0.831  10.450 -1.0929 -2.0017  1.2655
21123SOL    HW264811   4.076   0.716  10.401 -0.5010 -0.4448 -1.5858
21124SOL     OW64812   1.089   4.496   3.257  0.3290 -0.1047 -0.0651
21124SOL    HW164813   0.996   4.508   3.239  0.6476 -0.2717 -2.0487
21124SOL    HW264814   1.096   4.494   3.352 -1.8282 -1.1117  0.1185
21125SOL     OW64815   4.943   0.636   9.680 -0.0306  0.7618 -0.2028
21125SOL    HW164816   4.849   0.616   9.672  0.2574 -1.1876  0.6862
21125SOL    HW264817   4.955   0.658   9.772  0.5097  0.2666 -0.1527
21126SOL     OW64818   6.983   4.351   9.597  0.7875 -0.6498 -0.1680
21126SOL    HW164819   7.026   4.348   9.682 -0.1309 -1.4878  0.2837
21126SOL    HW264820   7.048   4.318   9.535  0.9505 -1.4707  0.4335
21127SOL     OW64821   6.793   7.012   4.277  0.0655  0.0908 -0.0560
21127SOL    HW164822   6.759   6.938   4.328 -0.9105  2.0990  2.4576
21127SOL    HW264823   6.878   7.031   4.316 -0.0909  0.8298 -0.0599
21128SOL     OW64824   0.318   1.364   1.319  0.0712  0.4244  0.3315
21128SOL    HW164825   0.237   1.362   1.370 -0.8479  0.6300 -1.0874
21128SOL    HW264826   0.338   1.457   1.309 -0.3513  0.4270 -0.5822
21129SOL     OW64827   6.767   5.248   8.885 -0.3450 -1.2020  0.0631
21129SOL    HW164828   6.678   5.278   8.864 -0.2980  0.2830  1.7350
21129SOL    HW264829   6.824   5.319   8.854 -0.0138 -0.6854  1.7682
21130SOL     OW64830   2.681   4.866   7.100 -0.9940  0.5755  0.5227
21130SOL    HW164831   2.693   4.792   7.041  2.5319  0.6494  0.9106
21130SOL    HW264832   2.620   4.835   7.167  0.4697 -2.0929  0.7482
21131SOL     OW64833   7.874   6.264   3.829  0.6211  0.3735  0.2012
21131SOL    HW164834   7.876   6.356   3.856  0.8133  0.3045  0.4244
21131SOL    HW264835   7.964   6.235   3.838  0.4662  0.0193  0.6213
21132SOL     OW64836   6.023   1.686  11.071 -0.0270  0.2369  0.1569
21132SOL    HW164837   6.047   1.778  11.082  0.3659 -0.1053  3.0903
21132SOL    HW264838   5.932   1.687  11.042  0.0032  1.5352  0.0671
21133SOL     OW64839   2.577   7.779   4.075 -0.0841  0.0797  0.0706
21133SOL    HW164840   2.632   7.732   4.012  0.8965  0.5976  0.5172
21133SOL    HW264841   2.545   7.712   4.135  4.2998  0.2220  3.0137
21134SOL     OW64842   4.975   1.032  11.807  0.2506 -1.0048 -0.3793
21134SOL    HW164843   5.034   0.987  11.868  2.0154 -0.7769 -1.8465
21134SOL    HW264844   5.017   1.117  11.791 -0.2356 -1.0170 -1.8250
21135SOL     OW64845   0.710   4.880   2.426 -0.7236 -0.7810 -0.3808
21135SOL    HW164846   0.718   4.928   2.509 -0.5134  0.0076 -0.8443
21135SOL    HW264847   0.801   4.868   2.397 -0.8343  0.1996 -1.1870
21136SOL     OW64848   5.287   4.145   6.148  0.4958  0.3588  0.2054
21136SOL    HW164849   5.370   4.100   6.133  1.0770  1.4040  0.1431
21136SOL    HW264850   5.251   4.160   6.061 -0.1844 -0.8264  0.2643
21137SOL     OW64851   4.232   0.609   8.147  0.2840 -0.2914  0.0957
21137SOL    HW164852   4.176   0.682   8.176 -0.4788 -1.2969  1.2355
21137SOL    HW264853   4.180   0.564   8.081 -1.1933 -2.3733  2.5062
21138SOL     OW64854   1.590   1.515   8.713 -0.4474 -0.0290  0.4114
21138SOL    HW164855   1.513   1.566   8.688 -0.3487 -0.3325 -0.5282
21138SOL    HW264856   1.599   1.532   8.807 -0.5291  1.5227  0.1761
21139SOL     OW64857   1.572   5.271   9.716  0.2141  0.5617 -0.7225
21139SOL    HW164858   1.624   5.229   9.647  0.9814  0.9905 -0.4244
21139SOL    HW264859   1.624   5.347   9.741  0.3791 -0.0713  0.9552
21140SOL     OW64860   1.246   3.517  10.176 -0.5406  0.4608 -0.0385
21140SOL    HW164861   1.254   3.504  10.270 -1.4244  0.9540  0.1094
21140SOL    HW264862   1.192   3.443  10.146 -1.9017  1.3440  0.1509
21141SOL     OW64863   2.153   4.489  12.079 -0.1185 -0.1540 -0.5838
21141SOL    HW164864   2.102   4.560  12.117 -1.0655 -0.8872 -0.4616
21141SOL    HW264865   2.218   4.468  12.146 -1.4085 -1.0510  0.4304
21142SOL     OW64866   6.368   3.672   9.209  0.4445  0.1604 -0.2267
21142SOL    HW164867   6.408   3.759   9.218  3.7304 -1.2964  0.7459
21142SOL    HW264868   6.328   3.656   9.295  2.0189 -0.2155  0.4687
21143SOL     OW64869   4.265   2.060  10.239 -0.1746  0.3077  0.3090
21143SOL    HW164870   4.174   2.035  10.256 -0.9811  1.8604 -1.4057
21143SOL    HW264871   4.270   2.152  10.264  0.6603  0.4900 -0.4809
21144SOL     OW64872   3.475   6.624  11.921 -0.2889  0.6760 -0.2670
21144SOL    HW164873   3.455   6.547  11.973 -0.4154 -0.1064 -1.4317
21144SOL    HW264874   3.495   6.589  11.834 -0.3328  1.9539 -0.8085
21145SOL     OW64875   6.205   6.574  11.731  0.7627 -0.4999  0.0373
21145SOL    HW164876   6.163   6.492  11.705  0.2866 -0.0500 -0.6892
21145SOL    HW264877   6.166   6.640  11.673 -0.6051  0.6501  2.1415
21146SOL     OW64878   0.444   4.786   8.705  0.2821 -0.5815 -0.0061
21146SOL    HW164879   0.479   4.818   8.788  0.3678 -1.0702  0.1482
21146SOL    HW264880   0.349   4.788   8.717  0.2218  0.9292 -0.4937
21147SOL     OW64881   7.553   6.851   7.313  0.2173  0.2444 -0.1225
21147SOL    HW164882   7.481   6.902   7.350  0.2647  0.5391 -0.4308
21147SOL    HW264883   7.583   6.796   7.385  0.8990  1.4463  0.5617
21148SOL     OW64884   6.687   0.936   1.036 -0.3042  0.0269 -0.5024
21148SOL    HW164885   6.660   0.982   1.116  0.7190  0.4463 -0.3851
21148SOL    HW264886   6.683   1.003   0.968 -0.0004 -0.0197 -0.5672
21149SOL     OW64887   5.889   5.047  11.645 -0.1757 -0.2091 -0.3516
21149SOL    HW164888   5.869   5.007  11.560  0.4121  0.3650 -0.7748
21149SOL    HW264889   5.901   5.140  11.625  0.3446 -0.1286  0.2914
21150SOL     OW64890   4.737   0.477   7.960  0.2250 -0.1277 -0.4653
21150SOL    HW164891   4.648   0.457   7.988 -0.0764  1.3085 -0.3441
21150SOL    HW264892   4.774   0.529   8.031  0.7647  0.2765 -1.0251
21151SOL     OW64893   3.863   1.726  10.487  0.7008 -0.1582 -0.4403
21151SOL    HW164894   3.877   1.811  10.529  1.1387 -0.0950 -0.7115
21151SOL    HW264895   3.769   1.710  10.496  0.6509  0.2587 -0.2059
21152SOL     OW64896   1.136   0.723   5.962 -0.0012 -0.3119  0.0999
21152SOL    HW164897   1.092   0.797   6.002  0.1669  0.3665 -0.9141
21152SOL    HW264898   1.190   0.685   6.032  0.1889  0.7442  0.5404
21153SOL     OW64899   0.360   1.218   2.863  0.1174 -0.2667  0.3845
21153SOL    HW164900   0.404   1.205   2.947  2.3559 -1.8772 -0.9097
21153SOL    HW264901   0.361   1.132   2.822  1.4422  0.8884 -2.2939
21154SOL     OW64902   4.291   4.389   4.189 -0.2627  0.2732  0.3909
21154SOL    HW164903   4.269   4.379   4.281 -1.7052  0.4770  0.0973
21154SOL    HW264904   4.278   4.482   4.171  1.1190  0.4560  0.2292
21155SOL     OW64905   4.923   5.493   4.376  0.2612  0.2325 -0.1734
21155SOL    HW164906   4.897   5.464   4.289  0.7728  0.5276 -0.4287
21155SOL    HW264907   4.967   5.418   4.415  0.2934  0.1941 -0.2846
21156SOL     OW64908   4.826   4.652   1.587  0.1195 -0.1553 -0.0256
21156SOL    HW164909   4.830   4.698   1.671 -1.1595  0.0005 -0.0230
21156SOL    HW264910   4.742   4.607   1.589  0.6622 -1.2293 -0.6884
21157SOL     OW64911   3.837   1.783   1.855  0.6524 -0.3554  0.6301
21157SOL    HW164912   3.858   1.820   1.941  1.7307 -1.4399  0.8546
21157SOL    HW264913   3.921   1.754   1.820  0.2247  0.0208 -0.7907
21158SOL     OW64914   4.779   5.877   7.894  0.6948  0.1847 -0.0218
21158SOL    HW164915   4.754   5.787   7.916  1.5332 -0.0756 -0.0852
21158SOL    HW264916   4.701   5.929   7.914  0.2360 -0.5373  0.1237
21159SOL     OW64917   6.645   1.522   6.677 -0.4312 -0.4233 -0.7632
21159SOL    HW164918   6.653   1.608   6.636 -0.1925 -1.1121 -2.2273
21159SOL    HW264919   6.603   1.539   6.761  1.4469  1.3446 -0.1157
21160SOL     OW64920   2.530   1.525   9.296 -0.1842 -0.3162  0.4736
21160SOL    HW164921   2.562   1.607   9.259 -2.5238  1.2795  1.7532
21160SOL    HW264922   2.609   1.470   9.302  1.4783  1.7943 -0.3792
21161SOL     OW64923   1.032   2.393   3.855  0.0219  0.2982  0.2724
21161SOL    HW164924   1.093   2.450   3.808  0.2420  0.6953  1.0282
21161SOL    HW264925   1.050   2.409   3.947 -1.0101  0.1783  0.5074
21162SOL     OW64926   4.022   0.203  11.534  0.2710  0.8153  0.2379
21162SOL    HW164927   4.107   0.245  11.522  1.4104 -1.1989  0.7712
21162SOL    HW264928   3.970   0.268  11.582  1.3540  2.2432 -0.4501
21163SOL     OW64929   1.644   5.605   0.743  0.5127  0.2401 -0.2662
21163SOL    HW164930   1.549   5.613   0.729  0.7604 -0.2306 -2.6338
21163SOL    HW264931   1.676   5.695   0.746  0.0774  0.3945 -0.2293
21164SOL     OW64932   6.038   7.387   8.058 -0.0374 -0.4692 -0.1004
21164SOL    HW164933   6.052   7.303   8.101  0.2174 -1.0730 -1.3008
21164SOL    HW264934   5.959   7.423   8.097  0.9661 -0.2961  1.8772
21165SOL     OW64935   6.544   3.289   7.752 -0.0988  0.0003 -0.5212
21165SOL    HW164936   6.612   3.248   7.804 -0.0277 -0.0985 -0.6904
21165SOL    HW264937   6.584   3.300   7.665 -0.0539  0.5797 -0.4322
21166SOL     OW64938   5.033   4.585   4.015 -0.8489  0.5876 -0.4261
21166SOL    HW164939   5.121   4.591   4.053 -0.9022  0.1701 -0.2295
21166SOL    HW264940   5.025   4.663   3.960 -0.1010  0.3036 -0.9630
21167SOL     OW64941   2.172   2.468   0.432  0.3588  0.5232 -0.2541
21167SOL    HW164942   2.193   2.472   0.339 -1.0506  1.1388 -0.5732
21167SOL    HW264943   2.189   2.377   0.456 -0.9041 -0.0966 -1.5489
21168SOL     OW64944   2.701   3.327   0.040  0.3414  0.2480  0.0262
21168SOL    HW164945   2.770   3.290   0.095 -0.7132 -0.0792  1.1590
21168SOL    HW264946   2.747   3.360  -0.037  1.5457 -1.7636 -0.1903
21169SOL     OW64947   0.346   1.625   0.799 -0.3928  0.1300 -0.0400
21169SOL    HW164948   0.387   1.561   0.857  0.2162 -0.3502 -0.9716
21169SOL    HW264949   0.315   1.694   0.857  1.4362  0.3566  0.7405
21170SOL     OW64950   2.755   5.954   9.067  0.2391 -0.0084  0.7539
21170SOL    HW164951   2.761   6.039   9.112  2.6350  0.5031 -0.3437
21170SOL    HW264952   2.709   5.897   9.129 -0.2048  1.7172  2.1000
21171SOL     OW64953   4.441   6.898   0.135  0.2634 -0.0936 -0.4458
21171SOL    HW164954   4.535   6.910   0.121  0.4594  0.7134  1.2726
21171SOL    HW264955   4.436   6.827   0.199 -0.2741 -0.0095 -0.3918
21172SOL     OW64956   3.408   6.923   2.416  0.8571 -0.1765  0.3496
21172SOL    HW164957   3.338   6.956   2.473 -0.9269 -1.5228 -0.9634
21172SOL    HW264958   3.382   6.950   2.328  0.3402 -3.2334 -0.5472
21173SOL     OW64959   1.861   7.875   7.650 -0.2060  0.2931  0.1954
21173SOL    HW164960   1.935   7.862   7.708  1.2011  1.5844 -1.1964
21173SOL    HW264961   1.884   7.827   7.570 -1.3089 -0.0575  0.0694
21174SOL     OW64962   7.825   4.909  11.189  0.3506 -0.0902 -0.2270
21174SOL    HW164963   7.799   4.955  11.268  3.1711  1.2380  0.0472
21174SOL    HW264964   7.914   4.940  11.171  0.5066 -1.7409 -2.8811
21175SOL     OW64965   5.381   7.001   9.221  0.7658  0.2748  0.8402
21175SOL    HW164966   5.305   6.960   9.263  1.8242  1.4161  4.1627
21175SOL    HW264967   5.449   6.934   9.221 -0.0228 -0.6849 -1.9674
21176SOL     OW64968   2.498   4.304   7.923  0.2766 -0.2266 -0.2217
21176SOL    HW164969   2.435   4.244   7.965 -2.5469  1.4115 -1.8293
21176SOL    HW264970   2.556   4.246   7.874 -0.7339 -1.7929  0.3310
21177SOL     OW64971   2.409   7.289   2.144  0.2084  0.8149  0.2486
21177SOL    HW164972   2.336   7.308   2.204 -2.1817 -2.3421 -1.3640
21177SOL    HW264973   2.464   7.228   2.193 -1.0466 -0.7605 -0.2459
21178SOL     OW64974   6.592   4.368  10.128  0.4725  0.2445  0.4102
21178SOL    HW164975   6.669   4.375  10.184 -0.4611  0.8719  1.6619
21178SOL    HW264976   6.543   4.450  10.143 -1.3422 -0.8917  1.0718
21179SOL     OW64977   5.222   3.866   5.400  0.1526 -0.2496 -0.2758
21179SOL    HW164978   5.305   3.866   5.448  0.0460 -0.1826 -0.0929
21179SOL    HW264979   5.245   3.831   5.314  0.2421 -0.8679 -0.0047
21180SOL     OW64980   2.134   7.561   4.687 -0.3334 -0.4405 -0.2867
21180SOL    HW164981   2.181   7.636   4.652 -1.1141 -0.0970 -0.6219
21180SOL    HW264982   2.150   7.491   4.624  1.8505 -1.1098  0.9026
21181SOL     OW64983   2.854   7.768   3.918  0.3430 -0.0818  0.1581
21181SOL    HW164984   2.922   7.715   3.958  1.7422  0.7011 -1.0972
21181SOL    HW264985   2.900   7.843   3.879 -0.9442 -0.4249 -2.2742
21182SOL     OW64986   0.375   0.009  10.244 -0.6597  0.0454 -0.2200
21182SOL    HW164987   0.457   0.037  10.203 -0.4483 -0.2331  0.0088
21182SOL    HW264988   0.308   0.057  10.197 -0.4668 -0.6759 -1.2741
21183SOL     OW64989   2.860   5.785   1.985  0.1986 -0.0371  0.4875
21183SOL    HW164990   2.810   5.865   1.999 -0.4999 -0.3295 -0.2439
21183SOL    HW264991   2.950   5.815   1.973 -0.1273  0.6972 -0.2723
21184SOL     OW64992   4.927   3.557   9.916 -0.4836  0.1353  0.1979
21184SOL    HW164993   4.954   3.643   9.948  0.7730  0.3717 -1.3883
21184SOL    HW264994   4.848   3.573   9.865 -0.6525  0.2368  0.4898
21185SOL     OW64995   4.728   5.533  11.906  0.3197 -0.0253 -0.1035
21185SOL    HW164996   4.754   5.491  11.824  3.8168 -3.0246  2.2495
21185SOL    HW264997   4.641   5.497  11.925  0.1457 -0.5167 -1.7194
21186SOL     OW64998   2.667   6.197   4.912  0.0744 -0.3122  0.0857
21186SOL    HW164999   2.740   6.141   4.885 -0.7888 -1.7626  0.6277
21186SOL    HW265000   2.657   6.179   5.006 -1.6027 -0.9186 -0.1739
21187SOL     OW65001   2.704   3.986   6.464  0.5910  0.3508  0.4165
21187SOL    HW165002   2.736   4.076   6.468  0.3366  0.5238 -0.9605
21187SOL    HW265003   2.613   3.992   6.495  0.8383  0.4023  1.1660
21188SOL     OW65004   5.507   1.092   3.957 -0.0652 -0.3556 -0.2880
21188SOL    HW165005   5.469   1.074   3.872 -2.1208 -0.8323  0.6585
21188SOL    HW265006   5.476   1.180   3.979  0.0762 -0.4077  0.1459
21189SOL     OW65007   1.336   6.183   1.118 -0.4116 -0.0189 -0.2619
21189SOL    HW165008   1.279   6.112   1.090  1.2926 -1.9750  0.9333
21189SOL    HW265009   1.417   6.170   1.068  0.8577 -0.5775  1.8085
21190SOL     OW65010   7.764   3.101   9.120 -0.4577 -0.5292  0.1390
21190SOL    HW165011   7.781   3.151   9.039 -1.6791 -0.8578 -0.3397
21190SOL    HW265012   7.830   3.133   9.182 -0.5382  0.9083 -0.4859
21191SOL     OW65013   5.996   7.910  11.587  0.8145  0.3596 -0.5405
21191SOL    HW165014   5.936   7.932  11.516  1.7563 -0.8946 -1.7732
21191SOL    HW265015   5.942   7.860  11.649 -0.0666  1.6476 -0.2234
21192SOL     OW65016   6.260   0.387   1.083 -0.2116  0.6468 -0.0812
21192SOL    HW165017   6.229   0.326   1.151  1.6774  1.8897  2.0430
21192SOL    HW265018   6.192   0.455   1.079 -0.0872  0.8583  1.0315
21193SOL     OW65019   2.573   0.458   7.338 -0.1508  0.3639 -0.5175
21193SOL    HW165020   2.592   0.445   7.431 -0.6169 -0.3476 -0.5061
21193SOL    HW265021   2.658   0.453   7.295 -0.0784 -0.7291 -0.2732
21194SOL     OW65022   2.927   3.515   4.502 -0.4517  0.3638  0.0604
21194SOL    HW165023   2.976   3.595   4.485 -2.4029  1.6104 -0.0332
21194SOL    HW265024   2.952   3.489   4.591  2.2863 -0.5620 -0.8808
21195SOL     OW65025   1.043   3.376   6.731 -0.7605  0.6450  0.1864
21195SOL    HW165026   1.051   3.469   6.712 -2.1189  0.5503 -1.0363
21195SOL    HW265027   0.952   3.355   6.710 -0.0649 -1.3059 -1.1537
21196SOL     OW65028   5.620   1.289   1.180 -0.0289  0.3527  0.1087
21196SOL    HW165029   5.646   1.236   1.105  1.1849  1.5311 -0.3309
21196SOL    HW265030   5.554   1.349   1.146  0.0600  0.4695  0.1444
21197SOL     OW65031   1.970   7.820   7.926  0.6563  0.2105 -0.6724
21197SOL    HW165032   1.888   7.773   7.917  1.2031 -0.7894 -0.5668
21197SOL    HW265033   1.944   7.910   7.946 -0.4031 -0.4888  1.3864
21198SOL     OW65034   2.571   4.016   8.190 -0.2242 -0.2693 -0.3374
21198SOL    HW165035   2.610   3.997   8.105 -2.3403 -0.1325 -1.4048
21198SOL    HW265036   2.600   3.945   8.246  2.2260  0.2931 -0.7803
21199SOL     OW65037   5.483   7.428   1.935  0.7874 -0.6401 -0.6772
21199SOL    HW165038   5.505   7.476   2.015  0.9835 -1.9042  0.0538
21199SOL    HW265039   5.452   7.343   1.966 -2.0327 -0.1364 -1.7981
21200SOL     OW65040   6.439   0.754   5.753 -0.5423  0.1563 -0.0845
21200SOL    HW165041   6.485   0.809   5.815 -0.6669 -0.2555  0.3785
21200SOL    HW265042   6.351   0.745   5.789 -0.3595 -0.8100  0.1459
21201SOL     OW65043   3.064   4.887   3.523  0.1054 -0.2408 -0.2006
21201SOL    HW165044   3.120   4.940   3.580 -0.6316  0.7855 -0.4089
21201SOL    HW265045   3.100   4.901   3.435 -0.2264  0.1054 -0.2842
21202SOL     OW65046   1.823   0.409   3.645  0.1835 -0.2464  0.4798
21202SOL    HW165047   1.792   0.329   3.601 -0.7231  1.1164 -1.4786
21202SOL    HW265048   1.918   0.407   3.635  0.1683 -1.0698  0.4249
21203SOL     OW65049   2.241   5.428   6.371  0.5476  0.0048  0.2342
21203SOL    HW165050   2.315   5.458   6.318  0.4302  3.8146  1.9346
21203SOL    HW265051   2.206   5.507   6.412 -2.5375 -2.0463  2.0221
21204SOL     OW65052   7.046   1.323   0.922 -0.2250  0.6264 -0.1614
21204SOL    HW165053   7.037   1.416   0.901  1.7946  0.6300 -1.2095
21204SOL    HW265054   7.000   1.277   0.852  0.1558  0.7963 -0.5194
21205SOL     OW65055   1.341   5.932   7.263  0.6928 -0.2856  0.0185
21205SOL    HW165056   1.415   5.886   7.223  1.7187  0.2014  1.2684
21205SOL    HW265057   1.380   5.982   7.335 -0.3800  2.5033 -1.2114
21206SOL     OW65058   3.019   2.555   5.996 -0.0216 -0.5372 -0.1995
21206SOL    HW165059   2.941   2.499   5.991 -1.1716  1.0931 -3.2974
21206SOL    HW265060   3.002   2.614   6.069 -1.0673 -1.0789  0.0140
21207SOL     OW65061   3.973   3.135   4.272  0.1481  0.0747  0.0042
21207SOL    HW165062   3.974   3.127   4.367  2.4046  0.0172  0.0286
21207SOL    HW265063   3.995   3.226   4.255 -1.4770  0.4035 -0.4864
21208SOL     OW65064   7.715   3.001   6.025  0.3869  0.1106  0.3611
21208SOL    HW165065   7.701   2.908   6.038  2.1509 -0.2212  0.1354
21208SOL    HW265066   7.717   3.012   5.930  0.3160  0.3741  0.3873
21209SOL     OW65067   5.833   6.123  12.106 -0.3008  0.2780  0.5512
21209SOL    HW165068   5.861   6.212  12.125 -0.7729  0.7046 -0.6158
21209SOL    HW265069   5.778   6.098  12.180 -0.6905  1.2116  0.5879
21210SOL     OW65070   4.294   0.906   2.008 -0.3909 -0.4525  0.1388
21210SOL    HW165071   4.310   0.854   1.929  0.2590 -1.6674  1.0383
21210SOL    HW265072   4.200   0.923   2.007 -0.3751 -0.3210 -0.9531
21211SOL     OW65073   3.879   6.952   1.434 -0.2909 -0.2132  0.4705
21211SOL    HW165074   3.792   6.970   1.468 -0.6376 -0.2916 -0.3543
21211SOL    HW265075   3.875   6.978   1.342  0.8797  0.8181  0.6732
21212SOL     OW65076   3.334   4.127   2.850  0.0351  0.0567 -0.2172
21212SOL    HW165077   3.271   4.161   2.786  0.3338  2.1920  0.5722
21212SOL    HW265078   3.352   4.200   2.909  2.2780 -0.8620  0.3653
21213SOL     OW65079   0.724   7.885  10.276 -0.0252 -0.0655  0.4507
21213SOL    HW165080   0.686   7.884  10.364 -0.7263  1.4246  0.1932
21213SOL    HW265081   0.651   7.909  10.219  0.7088  0.2302 -0.3816
21214SOL     OW65082   2.145   0.411   2.879  0.0421  0.8660  0.3719
21214SOL    HW165083   2.049   0.409   2.876  0.0872 -0.2613 -1.1197
21214SOL    HW265084   2.165   0.462   2.957 -1.7780  0.5991  1.0609
21215SOL     OW65085   7.360   4.530   1.358  0.1834  0.4840 -0.4267
21215SOL    HW165086   7.428   4.475   1.320  0.4700 -1.5724  2.7125
21215SOL    HW265087   7.279   4.502   1.316  0.7559 -0.0470 -1.1921
21216SOL     OW65088   7.460   6.733   3.493  0.0087  0.2959 -0.5128
21216SOL    HW165089   7.506   6.755   3.574  1.9360 -1.7898 -0.9236
21216SOL    HW265090   7.393   6.669   3.520 -0.2812  0.6405 -0.4032
21217SOL     OW65091   6.333   7.624   4.203  0.1161 -0.5730 -0.0752
21217SOL    HW165092   6.308   7.631   4.295  1.4575  2.2053  0.1817
21217SOL    HW265093   6.258   7.582   4.161 -0.8041 -1.3152  2.1472
21218SOL     OW65094   6.826   3.855   4.687 -0.2083  0.1484 -0.5846
21218SOL    HW165095   6.918   3.883   4.681  0.4894 -1.9321 -0.4551
21218SOL    HW265096   6.818   3.786   4.621 -0.8070 -1.7952  1.3903
21219SOL     OW65097   2.768   4.622   8.397  0.3788  0.6932  0.2904
21219SOL    HW165098   2.688   4.622   8.345  0.2938  0.8254  0.4219
21219SOL    HW265099   2.739   4.600   8.486  0.5275  0.4295  0.2767
21220SOL     OW65100   0.755   1.373   5.821  0.5427 -0.1444  0.1350
21220SOL    HW165101   0.796   1.460   5.824  0.0124  0.1422 -0.5696
21220SOL    HW265102   0.671   1.388   5.776  0.6376 -1.0930 -0.3719
21221SOL     OW65103   2.601   3.624   5.036  0.0759  0.2368 -0.2113
21221SOL    HW165104   2.610   3.563   4.963 -0.0602 -0.5236  0.4082
21221SOL    HW265105   2.509   3.620   5.061  0.4437 -0.8174  1.1151
21222SOL     OW65106   1.094   3.401   5.075  0.2823 -0.0929 -0.5810
21222SOL    HW165107   1.022   3.348   5.041 -1.6735  1.3536  1.0503
21222SOL    HW265108   1.094   3.479   5.019  0.4185  0.0209 -0.4235
21223SOL     OW65109   5.953   6.959  10.513  0.3856 -0.7396  0.0778
21223SOL    HW165110   5.902   7.041  10.511  0.6657 -0.5315  1.0907
21223SOL    HW265111   5.901   6.900  10.567  1.5682 -0.2637  1.8025
21224SOL     OW65112   4.827   2.582  12.201 -0.0782  0.1113 -0.6259
21224SOL    HW165113   4.898   2.569  12.138  1.6601 -0.7204  1.3921
21224SOL    HW265114   4.789   2.667  12.177  1.5455  0.5486 -1.8157
21225SOL     OW65115   0.449   2.468  11.227 -0.0355 -0.5741  0.2143
21225SOL    HW165116   0.375   2.526  11.211 -0.7284 -0.6064  2.7481
21225SOL    HW265117   0.459   2.469  11.323  1.2651 -2.9882  0.1855
21226SOL     OW65118   2.099   5.942   8.080 -0.1287  0.2423 -0.2988
21226SOL    HW165119   2.187   5.905   8.082  1.0928  2.8869 -0.7507
21226SOL    HW265120   2.090   5.987   8.164 -0.7090  0.7412 -0.6233
21227SOL     OW65121   3.771   0.097   2.653  0.0146  0.4433 -0.7504
21227SOL    HW165122   3.769   0.010   2.613  0.7723 -0.0694  0.2725
21227SOL    HW265123   3.693   0.100   2.708 -1.4345  1.4297 -2.7515
21228SOL     OW65124   2.644   6.632   0.902 -0.5752  0.6424  0.6847
21228SOL    HW165125   2.659   6.692   0.829 -1.7388 -1.4670 -1.4096
21228SOL    HW265126   2.718   6.647   0.961  0.6303  2.1343 -1.1029
21229SOL     OW65127   3.962   7.033   0.480  0.5194  0.0579  0.1577
21229SOL    HW165128   3.990   7.103   0.539  0.5273  0.3724 -0.2158
21229SOL    HW265129   3.996   7.059   0.395  0.4847 -0.3821  0.0108
21230SOL     OW65130   0.645   4.662   8.587  0.6702 -0.4164 -0.6075
21230SOL    HW165131   0.575   4.709   8.633  2.3601  0.5734  1.1348
21230SOL    HW265132   0.667   4.717   8.512  1.1762  0.5429  0.2138
21231SOL     OW65133   0.769   5.253   0.844 -0.3139  0.0543 -0.1741
21231SOL    HW165134   0.703   5.202   0.797  0.9342 -1.4208 -0.3911
21231SOL    HW265135   0.753   5.234   0.936  0.4017 -1.1157 -0.2696
21232SOL     OW65136   7.372   6.344   5.226  0.4674 -0.7123 -0.4172
21232SOL    HW165137   7.448   6.402   5.231 -0.0793  0.1489 -1.6320
21232SOL    HW265138   7.367   6.303   5.312  1.2694  0.5512  0.2574
21233SOL     OW65139   0.231   5.519  12.249  0.4088  0.0856 -0.0104
21233SOL    HW165140   0.293   5.452  12.221 -0.1804  0.5976 -2.8084
21233SOL    HW265141   0.151   5.500  12.200 -0.7727  1.0866  1.4289
21234SOL     OW65142   0.659   1.612   9.851 -0.0161  0.2294 -0.1154
21234SOL    HW165143   0.697   1.530   9.819 -1.3838 -0.5363  0.1490
21234SOL    HW265144   0.725   1.647   9.911  0.6369 -0.6098 -0.3229
21235SOL     OW65145   0.694   1.625  10.599 -0.0461  0.5480  0.5487
21235SOL    HW165146   0.654   1.644  10.684 -2.5027 -2.3056  0.2123
21235SOL    HW265147   0.699   1.530  10.596 -0.0303  0.5508 -2.4991
21236SOL     OW65148   5.367   6.839   7.329 -0.0264  0.2418  0.4633
21236SOL    HW165149   5.335   6.854   7.240 -2.6030 -1.8616  0.9095
21236SOL    HW265150   5.397   6.748   7.329  1.5460  0.7297  1.3550
21237SOL     OW65151   6.746   4.526   3.057 -1.0781 -0.8800  0.0714
21237SOL    HW165152   6.791   4.561   3.134  0.3856 -1.1195 -0.6532
21237SOL    HW265153   6.733   4.602   3.000  1.3384 -1.2855 -1.1262
21238SOL     OW65154   6.227   6.036   6.937  0.1698 -0.2141  0.2249
21238SOL    HW165155   6.291   6.033   6.866  2.0846 -0.6439  1.9156
21238SOL    HW265156   6.195   5.946   6.944 -0.3079 -0.0967 -0.2929
21239SOL     OW65157   6.538   3.527  11.519 -0.5729  0.0358 -0.3824
21239SOL    HW165158   6.628   3.551  11.540 -0.5110  0.1634 -0.7799
21239SOL    HW265159   6.546   3.449  11.464 -0.7836 -1.1723  1.2118
21240SOL     OW65160   0.447   0.439   0.765 -0.2648 -0.3811 -0.4020
21240SOL    HW165161   0.367   0.429   0.715  0.6791 -0.3910 -1.9667
21240SOL    HW265162   0.517   0.444   0.699  1.0284 -0.4205  0.9044
21241SOL     OW65163   2.008   7.696   8.836  0.0689  0.2181  0.1569
21241SOL    HW165164   1.996   7.655   8.751 -2.2684 -0.2793  0.6490
21241SOL    HW265165   2.103   7.704   8.846  0.4627 -1.3865 -1.6946
21242SOL     OW65166   2.524   7.158   0.279 -0.1861  0.3283 -0.2380
21242SOL    HW165167   2.471   7.238   0.287 -0.9249 -0.2062  0.4218
21242SOL    HW265168   2.605   7.178   0.326 -0.3345  0.7150 -0.1400
21243SOL     OW65169   6.623   1.685   6.075 -0.5344 -0.2515 -0.1139
21243SOL    HW165170   6.562   1.758   6.082 -1.3537 -1.0340  1.7558
21243SOL    HW265171   6.709   1.725   6.062 -0.9895  1.0332  0.7035
21244SOL     OW65172   2.150   3.295   4.189  0.2195 -0.1273  0.3830
21244SOL    HW165173   2.202   3.251   4.122  1.5691  2.7146 -0.6047
21244SOL    HW265174   2.072   3.326   4.142 -0.2876 -0.6579  0.8564
21245SOL     OW65175   2.583   5.804   8.864  0.4562 -0.4130 -0.6275
21245SOL    HW165176   2.565   5.736   8.929 -1.2442  0.3759 -0.2141
21245SOL    HW265177   2.655   5.855   8.902  0.0549 -0.4764  0.2350
21246SOL     OW65178   5.482   5.610   6.073 -0.0364  0.1406  0.4078
21246SOL    HW165179   5.444   5.586   6.158  0.9550 -0.8546  0.5922
21246SOL    HW265180   5.569   5.572   6.074 -0.5005 -1.1216 -1.6348
21247SOL     OW65181   5.169   2.388   5.482  0.1338  0.4215 -0.3324
21247SOL    HW165182   5.107   2.346   5.542 -2.3096  1.3983 -2.0046
21247SOL    HW265183   5.189   2.321   5.417 -0.8863  0.7205 -0.9709
21248SOL     OW65184   2.207   0.107   7.067 -0.0350 -0.3623 -0.4993
21248SOL    HW165185   2.188   0.089   6.975 -2.1072 -0.4983 -0.1116
21248SOL    HW265186   2.171   0.031   7.113 -2.5356  1.3597  0.6478
21249SOL     OW65187   3.719   0.501   2.610  0.7323  0.3597 -0.4633
21249SOL    HW165188   3.698   0.418   2.568  0.1332 -0.2102  0.8927
21249SOL    HW265189   3.787   0.478   2.675  0.3330  0.8509  0.1410
21250SOL     OW65190   4.627   7.447  10.293 -0.1115 -0.1699 -0.0831
21250SOL    HW165191   4.597   7.487  10.212  0.0113  0.7911  0.3328
21250SOL    HW265192   4.549   7.404  10.329 -0.1693 -0.5883 -0.6877
21251SOL     OW65193   1.433   6.218   5.343  0.1897 -0.4974  0.4984
21251SOL    HW165194   1.422   6.313   5.337 -0.1394 -0.5342  0.5118
21251SOL    HW265195   1.354   6.182   5.302 -0.3310 -0.7650  1.6905
21252SOL     OW65196   2.879   1.454   3.627 -0.2325 -0.2836  0.4995
21252SOL    HW165197   2.963   1.499   3.617 -1.1969  1.3761 -0.5514
21252SOL    HW265198   2.857   1.426   3.538 -1.9890  1.5811  0.3046
21253SOL     OW65199   7.924   4.721   8.243 -0.4195  0.8214  0.0867
21253SOL    HW165200   7.952   4.663   8.314  1.5693 -1.0778 -2.0866
21253SOL    HW265201   7.859   4.670   8.195  0.2210  0.9935 -0.9815
21254SOL     OW65202   4.264   2.342   4.997  0.2676  0.4749  0.1738
21254SOL    HW165203   4.169   2.335   4.987  0.0778 -0.0678  1.9763
21254SOL    HW265204   4.292   2.253   5.018  1.0932  0.7542  0.2762
21255SOL     OW65205   6.135   2.310   2.931  0.1435 -0.2463 -0.5952
21255SOL    HW165206   6.164   2.358   2.853 -2.0844  0.9776 -0.7335
21255SOL    HW265207   6.212   2.310   2.988  1.0186  1.1858 -1.6890
21256SOL     OW65208   7.368   7.656  11.605 -0.3118 -0.1620  0.4418
21256SOL    HW165209   7.314   7.675  11.528  1.2664  1.4591 -0.3320
21256SOL    HW265210   7.309   7.671  11.679 -1.3193  0.1718 -0.3894
21257SOL     OW65211   1.170   1.740   5.368 -0.5413 -0.2381 -0.3375
21257SOL    HW165212   1.165   1.834   5.384  1.1819 -0.4543  1.9125
21257SOL    HW265213   1.135   1.700   5.447  0.2664 -1.4763 -0.5801
21258SOL     OW65214   7.527   1.778   5.330  0.4580  0.4640  0.0945
21258SOL    HW165215   7.513   1.765   5.237  0.5648  0.8234  0.0298
21258SOL    HW265216   7.517   1.691   5.368 -0.2830  0.4283 -0.1640
21259SOL     OW65217   7.224   2.592   0.194  0.4406  0.5994  0.4515
21259SOL    HW165218   7.314   2.566   0.209  1.0097  0.3541 -2.6749
21259SOL    HW265219   7.223   2.686   0.213  0.9269  0.3100  2.0080
21260SOL     OW65220   0.810   1.875  10.614 -0.1065  0.7028  0.5896
21260SOL    HW165221   0.741   1.923  10.658  0.8579  2.7565  0.0108
21260SOL    HW265222   0.769   1.793  10.586 -1.4758  0.5942  2.7450
21261SOL     OW65223   1.378   5.522   7.947  0.3883  0.4004 -0.3748
21261SOL    HW165224   1.350   5.453   8.008 -1.3813  2.0334  0.8014
21261SOL    HW265225   1.468   5.541   7.973  1.0789 -1.7244 -1.0295
21262SOL     OW65226   6.791   3.216   9.208  0.0683 -0.8983 -0.0349
21262SOL    HW165227   6.752   3.152   9.268 -0.4779 -0.6635 -0.1365
21262SOL    HW265228   6.788   3.173   9.122 -1.1449 -0.3942 -0.2689
21263SOL     OW65229   6.335   2.056   6.980 -0.3498 -0.1543 -0.4610
21263SOL    HW165230   6.387   2.032   7.057 -0.1900 -0.3209 -0.6200
21263SOL    HW265231   6.273   2.121   7.013  0.1486  0.2627 -0.3350
21264SOL     OW65232   1.845   6.887   3.236  0.1805 -0.0060  0.1476
21264SOL    HW165233   1.789   6.822   3.278  0.4493 -0.1385  0.3079
21264SOL    HW265234   1.815   6.891   3.146 -2.0819  2.1070  0.8910
21265SOL     OW65235   0.383   3.065   7.667 -0.0883  0.1513  0.0052
21265SOL    HW165236   0.412   3.124   7.597 -0.5426  0.5101  0.1164
21265SOL    HW265237   0.463   3.045   7.715 -0.1356  1.9561  0.9296
21266SOL     OW65238   1.313   3.321   8.448  0.0836 -0.0289  0.2516
21266SOL    HW165239   1.395   3.312   8.497  0.5448  1.7338 -0.1056
21266SOL    HW265240   1.337   3.373   8.371 -1.1548 -0.4532 -0.4462
21267SOL     OW65241   7.473   0.824   7.849 -0.0816  0.4482  0.1037
21267SOL    HW165242   7.503   0.756   7.788 -1.3007 -0.1658  0.1507
21267SOL    HW265243   7.434   0.891   7.793 -0.4647  0.2689  0.1511
21268SOL     OW65244   2.151   2.209   7.581  0.2951  0.1635  0.1338
21268SOL    HW165245   2.175   2.301   7.566 -0.6038  0.4224  0.2190
21268SOL    HW265246   2.196   2.186   7.663 -0.8336  1.0767  1.0595
21269SOL     OW65247   0.381   6.656   8.077 -0.4723  0.4712 -0.2691
21269SOL    HW165248   0.430   6.698   8.148 -1.6690 -1.1483  1.6414
21269SOL    HW265249   0.290   6.684   8.090 -1.3415 -2.5422  1.1650
21270SOL     OW65250   5.667   2.669   3.576  0.6676  0.0175  0.6443
21270SOL    HW165251   5.622   2.719   3.645  0.0873 -0.6460  0.7544
21270SOL    HW265252   5.758   2.669   3.603  0.6609  0.8943  0.7190
21271SOL     OW65253   7.779   2.151   9.019  0.2712 -0.2952 -0.0515
21271SOL    HW165254   7.689   2.124   9.037 -0.0888  0.5221 -0.5788
21271SOL    HW265255   7.821   2.073   8.982  0.1854 -1.0941  1.4386
21272SOL     OW65256   5.388   2.998   4.496 -0.4562 -0.4359  0.2195
21272SOL    HW165257   5.413   3.090   4.485  0.6245 -0.4934  1.8252
21272SOL    HW265258   5.312   2.987   4.439 -0.3557  1.3394 -0.3250
21273SOL     OW65259   5.300   5.774   7.570 -0.0274 -0.0535 -0.2444
21273SOL    HW165260   5.355   5.767   7.648 -1.0687 -0.0694  0.5157
21273SOL    HW265261   5.222   5.722   7.591 -0.9617  1.1044 -0.7059
21274SOL     OW65262   1.058   7.345   6.398  0.6052  0.5537 -0.4137
21274SOL    HW165263   0.987   7.349   6.334 -1.8876 -0.4110  2.1187
21274SOL    HW265264   1.121   7.284   6.358 -0.9033 -0.1159 -1.9128
21275SOL     OW65265   1.406   6.983   4.875  0.1717 -0.2717  1.1217
21275SOL    HW165266   1.438   6.897   4.903 -0.5030 -0.5903  0.9276
21275SOL    HW265267   1.317   6.988   4.908 -0.9817 -0.9985 -1.5392
21276SOL     OW65268   4.600   0.016   7.429 -0.3685 -0.0885  0.0506
21276SOL    HW165269   4.616   0.033   7.336 -1.1665  0.0081 -0.0772
21276SOL    HW265270   4.505   0.004   7.435 -0.4688  1.0087  1.0319
21277SOL     OW65271   3.125   7.154   1.468  0.0794 -0.0208 -0.0351
21277SOL    HW165272   3.074   7.223   1.426  1.1861  1.3431  0.8238
21277SOL    HW265273   3.170   7.196   1.540  0.2007 -1.8063  0.9995
21278SOL     OW65274   5.839   6.753   1.998 -0.4226 -0.2207 -0.1016
21278SOL    HW165275   5.818   6.660   2.008 -0.7772 -0.1651 -0.3242
21278SOL    HW265276   5.777   6.785   1.933 -1.3796  0.5452  1.1417
21279SOL     OW65277   5.901   0.604   9.835 -0.9665  0.4642 -0.1967
21279SOL    HW165278   5.869   0.522   9.799 -0.1351  0.7047 -1.5347
21279SOL    HW265279   5.822   0.659   9.844 -1.2238  0.3191 -1.4509
21280SOL     OW65280   7.393   3.863  10.033  0.3344  0.0140  0.3529
21280SOL    HW165281   7.396   3.928  10.104 -1.0999  0.1753  0.2958
21280SOL    HW265282   7.356   3.911   9.959  0.1365 -0.6237  0.0336
21281SOL     OW65283   0.499   7.082   8.378  0.6902 -0.0061  0.2282
21281SOL    HW165284   0.587   7.119   8.369  0.2059  1.5320  1.4683
21281SOL    HW265285   0.512   7.001   8.427  1.4228  0.1043  0.2247
21282SOL     OW65286   5.903   1.126   1.960  0.3513  0.2030 -0.2807
21282SOL    HW165287   5.851   1.180   1.899  0.2446 -0.4653 -0.8002
21282SOL    HW265288   5.985   1.175   1.971 -0.1534  0.9839  0.0876
21283SOL     OW65289   7.199   2.709  12.112 -0.2216  0.2303 -0.0464
21283SOL    HW165290   7.293   2.708  12.096 -0.3389 -0.7978 -0.8123
21283SOL    HW265291   7.166   2.779  12.056  0.0914  0.6338  0.2713
21284SOL     OW65292   1.499   7.387   4.419 -0.3661  0.1409  0.0506
21284SOL    HW165293   1.442   7.444   4.367 -0.7706 -0.1873  0.1289
21284SOL    HW265294   1.445   7.363   4.495 -0.1698 -0.2788  0.0571
21285SOL     OW65295   3.415   4.567   0.687 -0.7433 -0.5169 -0.1183
21285SOL    HW165296   3.482   4.508   0.652  0.7663  1.1233 -0.1440
21285SOL    HW265297   3.332   4.524   0.666  0.1646 -1.0320 -3.1346
21286SOL     OW65298   6.826   7.476  11.240 -0.1134  0.0388  0.0585
21286SOL    HW165299   6.807   7.447  11.151  0.1148 -0.7215  0.2446
21286SOL    HW265300   6.842   7.395  11.288  0.5317  0.4833  0.6125
21287SOL     OW65301   4.728   2.110  11.536  0.0231 -0.0987  0.4540
21287SOL    HW165302   4.652   2.063  11.570 -0.6516  0.6078 -0.0352
21287SOL    HW265303   4.778   2.043  11.490  0.8610 -1.0232  2.6207
21288SOL     OW65304   0.767   0.127   8.241  0.0103 -0.4846  0.0098
21288SOL    HW165305   0.684   0.086   8.215  0.3495  0.2060 -2.4967
21288SOL    HW265306   0.807   0.154   8.158 -0.0468  4.6169  1.2898
21289SOL     OW65307   0.552   7.201   0.570 -0.3081 -0.1772  0.1480
21289SOL    HW165308   0.627   7.177   0.515  0.8173  1.3594  0.9292
21289SOL    HW265309   0.480   7.147   0.538  1.1572 -1.7924 -0.5533
21290SOL     OW65310   6.085   0.047   7.189 -0.1130 -0.0918  0.0732
21290SOL    HW165311   6.008   0.055   7.133  0.6877  1.3011 -0.8559
21290SOL    HW265312   6.142  -0.014   7.143 -1.4883 -2.9231  1.8081
21291SOL     OW65313   5.807   1.273   8.888  0.2642 -0.0459 -0.1003
21291SOL    HW165314   5.839   1.363   8.889  0.5912 -0.1099  2.7276
21291SOL    HW265315   5.748   1.269   8.813  0.9049  2.2688 -0.7814
21292SOL     OW65316   0.930   4.169  10.161  0.3466 -0.2489  0.4354
21292SOL    HW165317   0.867   4.100  10.182 -0.5457  0.0663 -1.0813
21292SOL    HW265318   0.917   4.187  10.068  0.6016  1.9262  0.7630
21293SOL     OW65319   5.024   4.724  11.520 -0.0263  0.5780  0.3847
21293SOL    HW165320   4.952   4.685  11.470  0.4981 -2.1360  1.5614
21293SOL    HW265321   5.005   4.701  11.611  0.0065  3.8027  1.3098
21294SOL     OW65322   6.675   6.399   9.726 -0.3156  0.3862 -0.0114
21294SOL    HW165323   6.606   6.421   9.788 -0.6626 -0.2132 -0.1813
21294SOL    HW265324   6.663   6.306   9.708  0.2773  0.3715 -0.3639
21295SOL     OW65325   1.110   0.888   6.231  0.5781 -0.3696 -0.7189
21295SOL    HW165326   1.118   0.968   6.283 -0.6393 -1.3935  1.1484
21295SOL    HW265327   1.193   0.843   6.244  1.2372  0.5004 -1.7111
21296SOL     OW65328   2.658   5.908   5.769 -0.1128  0.2669  0.0104
21296SOL    HW165329   2.707   5.826   5.758  0.1504  0.5343 -0.9138
21296SOL    HW265330   2.724   5.971   5.798 -0.5179 -0.0729  1.8322
21297SOL     OW65331   1.650   5.531   9.846 -0.1376 -0.1028 -0.2170
21297SOL    HW165332   1.607   5.603   9.800  1.2372  0.6489 -0.3807
21297SOL    HW265333   1.645   5.556   9.938  0.5261  0.3382 -0.2892
21298SOL     OW65334   4.111   0.634   3.206 -0.3051  0.6531 -0.1619
21298SOL    HW165335   4.024   0.626   3.169 -0.4292  0.6890  0.1161
21298SOL    HW265336   4.106   0.712   3.262 -0.0050  0.8404 -0.3945
21299SOL     OW65337   0.068   2.007   5.937  0.3576 -0.0773 -0.0087
21299SOL    HW165338   0.002   2.067   5.973 -0.8999 -1.8951  0.8897
21299SOL    HW265339   0.131   1.995   6.007 -1.2152 -2.3370  1.1630
21300SOL     OW65340   7.886   0.769   2.272 -0.2953 -0.3408 -0.9699
21300SOL    HW165341   7.880   0.772   2.367  0.7374 -1.0808 -0.8681
21300SOL    HW265342   7.907   0.859   2.247  1.1365 -0.4763 -0.3481
21301SOL     OW65343   2.019   1.779  11.126 -0.5329  0.1081 -0.4265
21301SOL    HW165344   2.089   1.719  11.151  0.4514  0.9344 -1.1113
21301SOL    HW265345   1.971   1.796  11.207 -0.7430 -1.4508 -0.1855
21302SOL     OW65346   3.087   4.666   8.459  0.2806 -0.5042  0.1803
21302SOL    HW165347   3.058   4.673   8.368  0.2100  1.9376  0.3225
21302SOL    HW265348   3.018   4.709   8.509  0.9659 -0.6294  1.2600
21303SOL     OW65349   6.491   0.834  10.337 -0.1528  0.6671 -0.4812
21303SOL    HW165350   6.529   0.844  10.424  0.3338  0.2059 -0.6365
21303SOL    HW265351   6.459   0.744  10.335 -0.5937  0.8205 -0.6191
21304SOL     OW65352   2.158   1.234   6.696 -0.7468  0.0814  0.5596
21304SOL    HW165353   2.126   1.306   6.642  0.1107 -0.8756 -1.3226
21304SOL    HW265354   2.144   1.263   6.786 -0.3756  2.6155 -0.1308
21305SOL     OW65355   1.955   7.426   4.032  0.0363  0.3603 -0.1772
21305SOL    HW165356   2.030   7.454   3.979 -0.7400 -0.1523 -1.6264
21305SOL    HW265357   1.882   7.479   4.000 -0.8503 -1.2736 -0.9989
21306SOL     OW65358   4.822   0.942  12.295  0.1610 -0.2226  0.4782
21306SOL    HW165359   4.746   0.887  12.279  0.9114 -1.4293  0.9295
21306SOL    HW265360   4.896   0.881  12.298  1.0045  0.7866  1.1385
21307SOL     OW65361   4.291   4.190   7.690 -0.0014 -0.0104 -0.4538
21307SOL    HW165362   4.234   4.171   7.764  1.5968 -2.3149  0.3118
21307SOL    HW265363   4.232   4.207   7.617 -1.6245 -0.2798  0.7601
21308SOL     OW65364   3.171   1.578   3.861 -0.3103 -0.0498  0.1837
21308SOL    HW165365   3.135   1.666   3.859 -0.9116 -0.2740  0.5338
21308SOL    HW265366   3.103   1.526   3.905  0.2048 -0.6024  0.3437
21309SOL     OW65367   6.990   3.135   5.571 -0.3527 -0.3321  0.0954
21309SOL    HW165368   7.077   3.114   5.606  0.3452  1.1041 -0.6698
21309SOL    HW265369   6.965   3.215   5.618 -1.1349 -0.5686  0.0892
21310SOL     OW65370   4.086   1.545  12.265 -0.4082  0.1982  0.3900
21310SOL    HW165371   4.127   1.557  12.179 -1.0661 -0.6964 -0.0651
21310SOL    HW265372   4.002   1.505  12.246 -0.3771 -0.4215  1.4839
21311SOL     OW65373   3.713   2.026   3.495  0.2198  0.6022 -0.1675
21311SOL    HW165374   3.801   1.995   3.519  0.7109  1.6608 -0.5305
21311SOL    HW265375   3.693   1.980   3.414 -0.3146 -0.9586  0.8119
21312SOL     OW65376   2.747   4.787   3.350 -0.3063 -0.3350  0.2520
21312SOL    HW165377   2.783   4.718   3.295 -1.4931 -0.4416 -0.4115
21312SOL    HW265378   2.781   4.768   3.437  0.1618 -1.1849 -0.1047
21313SOL     OW65379   3.175   1.388   1.933 -0.3888  0.0654 -0.1965
21313SOL    HW165380   3.264   1.359   1.955 -1.1326 -1.5201  0.9565
21313SOL    HW265381   3.148   1.331   1.861 -1.4259 -1.4640  1.2977
21314SOL     OW65382   5.628   3.217   9.274 -0.6125 -0.4237 -0.2277
21314SOL    HW165383   5.666   3.163   9.205 -0.1127 -2.2166  1.3603
21314SOL    HW265384   5.663   3.180   9.355 -0.6776  1.9792  0.9951
21315SOL     OW65385   0.996   5.735   4.358 -0.4306  0.6146  0.1137
21315SOL    HW165386   0.906   5.752   4.388 -1.1413  0.7609 -1.9330
21315SOL    HW265387   1.014   5.807   4.297 -0.1647 -1.1452 -1.9780
21316SOL     OW65388   6.512   5.604   4.242  0.3107 -0.0303  0.2235
21316SOL    HW165389   6.500   5.676   4.304 -2.2433 -1.7625  1.9660
21316SOL    HW265390   6.569   5.543   4.289 -0.5208 -0.7368  0.3424
21317SOL     OW65391   4.820   2.657   3.093  0.1244  0.0632  0.0523
21317SOL    HW165392   4.855   2.626   3.009  2.9557 -0.2154  1.2157
21317SOL    HW265393   4.799   2.576   3.141 -1.3306  0.2191 -0.2699
21318SOL     OW65394   0.108   2.724   0.956 -0.2560 -0.4555  0.4114
21318SOL    HW165395   0.039   2.659   0.945 -0.7167  0.1120 -0.1571
21318SOL    HW265396   0.061   2.808   0.962  0.4010  0.0600 -1.0575
21319SOL     OW65397   0.100   1.661   1.145  0.0943 -0.4891 -1.0015
21319SOL    HW165398   0.081   1.650   1.052  0.3613 -2.0066 -0.8984
21319SOL    HW265399   0.184   1.617   1.158  0.5009  0.4680 -0.1924
21320SOL     OW65400   0.068   0.878   1.583  0.6487 -0.1020  0.0584
21320SOL    HW165401   0.042   0.813   1.649 -0.8750  0.0223 -0.3821
21320SOL    HW265402   0.158   0.902   1.607  1.0025 -1.8440  0.6432
21321SOL     OW65403   4.154   6.951   5.022 -0.5317 -0.0526  0.3533
21321SOL    HW165404   4.078   6.967   4.966 -0.6859 -0.6055  0.3999
21321SOL    HW265405   4.207   6.888   4.973  0.0464  0.5568  0.1884
21322SOL     OW65406   3.876   7.795   5.127 -0.0822  0.2632  0.3346
21322SOL    HW165407   3.878   7.828   5.217  0.0518  0.1317  0.3817
21322SOL    HW265408   3.787   7.812   5.097  0.1658  1.2403  0.1334
21323SOL     OW65409   2.748   4.701   0.902  0.2838  0.0760  0.8884
21323SOL    HW165410   2.801   4.754   0.961  2.2051 -1.9904  1.1726
21323SOL    HW265411   2.809   4.669   0.836 -0.7814 -1.6044  0.6344
21324SOL     OW65412   6.399   4.933   2.147  0.3299  0.1313 -0.1325
21324SOL    HW165413   6.474   4.958   2.093  0.6091  3.5493  1.5459
21324SOL    HW265414   6.337   4.893   2.086  1.9103  0.8563 -2.3174
21325SOL     OW65415   2.132   3.117   0.523 -0.5029  0.4421 -0.0275
21325SOL    HW165416   2.179   3.109   0.440  1.3422  1.6640  0.8451
21325SOL    HW265417   2.042   3.135   0.497 -0.1452 -0.0615 -1.7589
21326SOL     OW65418   5.709   6.241   0.728 -0.2832 -0.0966  0.3051
21326SOL    HW165419   5.779   6.181   0.750 -0.4601 -0.3519  0.1744
21326SOL    HW265420   5.719   6.255   0.633  0.2050  0.6506  0.4574
21327SOL     OW65421   4.262   1.199  12.300  0.1912 -0.5612  0.1261
21327SOL    HW165422   4.187   1.226  12.246 -1.9996 -1.0699  2.6797
21327SOL    HW265423   4.336   1.246  12.262 -1.4898  0.4524 -2.2107
21328SOL     OW65424   1.283   0.370   2.486  0.0201  0.8080  0.2691
21328SOL    HW165425   1.249   0.409   2.567 -2.9513 -0.3916 -0.2596
21328SOL    HW265426   1.262   0.433   2.418 -1.0806  0.1269 -0.0458
21329SOL     OW65427   1.934   1.818   6.684  0.3432  0.0168  0.7331
21329SOL    HW165428   2.014   1.830   6.633  0.4143 -1.7608  0.3861
21329SOL    HW265429   1.879   1.761   6.631 -0.9947  0.8536  1.1645
21330SOL     OW65430   5.925   7.399   4.594  0.3913  0.6839 -0.3640
21330SOL    HW165431   5.962   7.363   4.513  1.1776  0.2059  0.1953
21330SOL    HW265432   5.967   7.350   4.664 -1.2078  0.2341  0.3225
21331SOL     OW65433   2.031   7.506   4.940  0.4374 -0.2202  0.2727
21331SOL    HW165434   2.084   7.430   4.965 -1.8500 -1.3376  2.0636
21331SOL    HW265435   2.059   7.526   4.850  2.9225 -1.5124  0.6772
21332SOL     OW65436   0.395   7.021   0.477 -0.0891  0.0585  0.8490
21332SOL    HW165437   0.301   7.037   0.486  0.0455 -0.4928  4.7383
21332SOL    HW265438   0.402   6.925   0.471  0.2059  0.1697 -2.0023
21333SOL     OW65439   5.229   0.848   6.229 -0.0883 -0.4154  0.4137
21333SOL    HW165440   5.271   0.766   6.204  0.1737 -0.2932  0.4541
21333SOL    HW265441   5.172   0.870   6.155  0.3734 -0.2696  0.1000
21334SOL     OW65442   3.236   5.901   8.688  0.0748  0.2749 -0.0481
21334SOL    HW165443   3.264   5.890   8.597 -0.4356 -0.0764 -0.1683
21334SOL    HW265444   3.288   5.837   8.737  1.8456  1.8393  0.2372
21335SOL     OW65445   5.855   6.357   2.923  0.0556 -0.3345 -0.3303
21335SOL    HW165446   5.912   6.366   2.846  1.6532  0.6669  0.8903
21335SOL    HW265447   5.866   6.266   2.951  1.0490 -0.1800 -0.1586
21336SOL     OW65448   4.933   5.550   2.912 -0.0895 -0.7525 -0.1503
21336SOL    HW165449   4.980   5.633   2.907  0.2276 -0.8768  0.6210
21336SOL    HW265450   4.997   5.488   2.947 -0.4858 -1.1992 -0.2075
21337SOL     OW65451   4.339   0.703   5.835 -0.0037 -0.7022  0.6196
21337SOL    HW165452   4.249   0.671   5.826 -0.3131 -0.1048  1.4640
21337SOL    HW265453   4.392   0.624   5.846 -0.4171 -1.0591  0.0536
21338SOL     OW65454   5.916   3.656   4.683 -0.1979  0.0325  0.7003
21338SOL    HW165455   5.898   3.750   4.687 -0.9644 -0.0996  0.5681
21338SOL    HW265456   5.993   3.644   4.738  0.8711  0.9609 -0.5546
21339SOL     OW65457   3.807   0.634   6.073  0.0958  0.5967  0.3331
21339SOL    HW165458   3.892   0.608   6.109 -0.2926 -0.4856  0.5210
21339SOL    HW265459   3.746   0.623   6.146 -0.3592  0.3857 -0.0709
21340SOL     OW65460   6.938   7.242   8.646 -0.1210 -0.3530  0.0069
21340SOL    HW165461   6.881   7.309   8.683 -0.3725 -0.5688  0.0091
21340SOL    HW265462   6.924   7.248   8.551  0.4271  0.1117 -0.0559
21341SOL     OW65463   0.737   4.695  11.146 -0.2969  0.2152 -0.1523
21341SOL    HW165464   0.763   4.774  11.194 -0.3028 -1.0372  2.0640
21341SOL    HW265465   0.644   4.707  11.129 -0.0599  1.1622 -0.8480
21342SOL     OW65466   1.060   2.713   7.608  0.0903  0.2695  0.7418
21342SOL    HW165467   1.011   2.666   7.541  0.6362 -0.7744  1.0394
21342SOL    HW265468   1.107   2.781   7.561 -0.1641  0.0609  0.1831
21343SOL     OW65469   4.263   2.105   4.163  0.4331  0.0671 -0.1377
21343SOL    HW165470   4.200   2.153   4.217  2.4850  0.8005  1.7552
21343SOL    HW265471   4.209   2.049   4.107 -1.8960  1.2692  0.7754
21344SOL     OW65472   2.886   4.821   8.604 -0.8796  0.1652  0.0667
21344SOL    HW165473   2.806   4.832   8.552 -1.0280  1.7637  0.5655
21344SOL    HW265474   2.863   4.755   8.669 -2.3397  1.5996  1.1047
21345SOL     OW65475   4.665   7.890   4.671 -0.4137  0.3438  0.7331
21345SOL    HW165476   4.576   7.875   4.639 -0.3566  0.3945  0.5460
21345SOL    HW265477   4.664   7.980   4.703  0.2823  1.3241 -1.7805
21346SOL     OW65478   4.203   5.174   2.715 -0.0333  0.0972  0.1663
21346SOL    HW165479   4.186   5.080   2.713 -2.4611  0.4851  0.4351
21346SOL    HW265480   4.233   5.190   2.805  3.4695 -0.7998 -0.6888
21347SOL     OW65481   5.648   3.854  12.374 -0.0947  0.8055 -0.1559
21347SOL    HW165482   5.611   3.933  12.413  0.7563  1.9888 -1.6136
21347SOL    HW265483   5.670   3.798  12.448 -2.9090  0.8819  0.8252
21348SOL     OW65484   0.123   4.357   1.765 -0.0945 -0.0718 -0.1073
21348SOL    HW165485   0.175   4.338   1.844 -0.1589 -0.2313 -0.1015
21348SOL    HW265486   0.143   4.285   1.706 -0.0156  0.0707 -0.2531
21349SOL     OW65487   4.470   7.955   4.936  0.1337  0.4273  0.3284
21349SOL    HW165488   4.451   7.962   5.030  0.5614 -0.0321  0.4586
21349SOL    HW265489   4.557   7.994   4.926  1.0744 -1.4865  0.5144
21350SOL     OW65490   1.147   7.454   8.449  0.1391 -0.9863  0.5758
21350SOL    HW165491   1.089   7.378   8.442 -1.2095  0.0774 -0.2440
21350SOL    HW265492   1.225   7.431   8.397 -0.7393 -1.3912 -0.5948
21351SOL     OW65493   3.682   2.529   1.145  0.2897  0.2658 -0.1745
21351SOL    HW165494   3.658   2.562   1.059  0.5130  0.2572 -0.2421
21351SOL    HW265495   3.775   2.551   1.154  0.2193  0.4495  0.1465
21352SOL     OW65496   3.752   6.737   7.625  0.3411 -0.1183  0.0760
21352SOL    HW165497   3.680   6.710   7.682 -0.1860  2.1878  0.6451
21352SOL    HW265498   3.823   6.759   7.685 -0.7945  4.0520  0.2153
21353SOL     OW65499   1.432   6.420   0.094  0.3274 -0.1674  0.5132
21353SOL    HW165500   1.425   6.329   0.122 -2.6458 -0.8173 -1.8156
21353SOL    HW265501   1.342   6.448   0.078  1.3058  2.1479 -1.8514
21354SOL     OW65502   5.538   4.037   4.198 -0.2536  0.6775  0.1606
21354SOL    HW165503   5.588   3.959   4.221 -0.4060  0.6827  0.5188
21354SOL    HW265504   5.519   4.027   4.105 -0.2937  0.2722  0.2105
21355SOL     OW65505   0.056   5.899  10.686  0.0636 -0.1560 -0.2567
21355SOL    HW165506   0.087   5.939  10.604  0.6509 -1.0991 -0.5162
21355SOL    HW265507   0.058   5.971  10.749 -0.5881  0.6425 -1.1063
21356SOL     OW65508   6.035   6.539   3.132  0.4688 -0.0624 -0.3836
21356SOL    HW165509   6.071   6.617   3.089  1.6512 -1.0029 -1.1524
21356SOL    HW265510   6.011   6.570   3.220 -1.4314  1.7524 -1.4441
21357SOL     OW65511   1.586   5.263   1.350 -0.2549  0.0699 -0.1486
21357SOL    HW165512   1.642   5.332   1.314  0.7637 -1.0284 -0.7351
21357SOL    HW265513   1.538   5.306   1.421  1.1787  1.1062  0.2416
21358SOL     OW65514   7.836   4.511   4.160  0.7008  0.3089  0.1323
21358SOL    HW165515   7.907   4.524   4.097  1.4102 -0.7812  0.6690
21358SOL    HW265516   7.864   4.561   4.237  0.3882  0.7063 -0.0097
21359SOL     OW65517   6.793   2.802  12.144  0.2185  0.0901  0.2890
21359SOL    HW165518   6.830   2.760  12.221  0.8770  2.1827  1.1870
21359SOL    HW265519   6.720   2.854  12.177 -1.2589 -1.0882 -0.9482
21360SOL     OW65520   4.008   5.607   4.288 -0.0035  0.2014 -0.3469
21360SOL    HW165521   4.056   5.668   4.345  0.4046 -0.8480  0.4568
21360SOL    HW265522   3.921   5.646   4.279 -0.7069 -0.4661  2.5221
21361SOL     OW65523   2.250   1.971   0.354 -0.1558  0.0209 -0.2336
21361SOL    HW165524   2.205   1.920   0.287  1.6182 -1.2639 -0.5066
21361SOL    HW265525   2.336   1.931   0.362  0.2249  1.0787  1.7709
21362SOL     OW65526   3.380   6.271   3.736  0.4730 -0.2760  0.1285
21362SOL    HW165527   3.286   6.255   3.743  0.3992 -0.0362 -0.3505
21362SOL    HW265528   3.402   6.250   3.645  0.2131  3.1481 -0.8674
21363SOL     OW65529   2.128   7.770   4.262 -0.5523 -0.3846 -0.0747
21363SOL    HW165530   2.061   7.837   4.244 -0.5097 -0.6387 -1.2084
21363SOL    HW265531   2.091   7.689   4.228 -0.9739 -1.1481  2.0606
21364SOL     OW65532   2.024   1.083  10.998  0.5859 -0.0796  0.0600
21364SOL    HW165533   2.074   1.060  11.077  0.8514 -1.3274 -0.4448
21364SOL    HW265534   2.018   1.179  11.001  2.0091  0.0200  0.7398
21365SOL     OW65535   0.071   6.797   9.391 -0.1731  0.3989 -0.0751
21365SOL    HW165536   0.062   6.854   9.314  1.4928  0.0268 -0.5908
21365SOL    HW265537   0.165   6.797   9.409 -0.2109 -1.6762  0.3000
21366SOL     OW65538   6.825   4.143  10.826 -0.5470 -0.3365 -0.3977
21366SOL    HW165539   6.811   4.059  10.870  0.3865  0.6799  2.0215
21366SOL    HW265540   6.909   4.133  10.782 -0.6443 -0.8043 -0.4831
21367SOL     OW65541   0.133   5.956   8.936  0.5378 -0.4859  0.0872
21367SOL    HW165542   0.096   6.010   9.006 -2.7233 -0.7885 -1.2624
21367SOL    HW265543   0.123   5.866   8.968 -1.8650 -0.6856 -1.0609
21368SOL     OW65544   1.868   3.706   6.975  0.1929  0.0536 -0.5061
21368SOL    HW165545   1.828   3.646   7.038 -0.4678  1.7347  0.7538
21368SOL    HW265546   1.808   3.704   6.900 -2.7668  2.8843  1.5313
21369SOL     OW65547   1.088   0.837   4.008  0.0929  0.1283 -0.4686
21369SOL    HW165548   1.147   0.805   3.940  0.6336  0.3938 -0.1339
21369SOL    HW265549   1.132   0.914   4.043  0.9485 -1.2725  1.7320
21370SOL     OW65550   3.415   7.339   9.229  0.4516 -0.4592  0.4622
21370SOL    HW165551   3.322   7.317   9.228  0.9133 -2.6243 -0.7856
21370SOL    HW265552   3.444   7.325   9.139  1.3078  3.7536 -0.1451
21371SOL     OW65553   4.271   2.572   2.750 -0.3851  0.8499  0.4372
21371SOL    HW165554   4.259   2.481   2.724 -0.1180  1.4025 -1.8816
21371SOL    HW265555   4.228   2.623   2.680 -1.2563  2.5055  2.0964
21372SOL     OW65556   1.403   0.249   7.630 -0.5215  0.1276  0.4374
21372SOL    HW165557   1.468   0.213   7.569 -2.4555 -0.7908 -1.1997
21372SOL    HW265558   1.379   0.333   7.593 -0.7645  0.1488  0.6375
21373SOL     OW65559   1.059   6.779   1.527  0.0883 -0.8572  0.3136
21373SOL    HW165560   1.127   6.846   1.515 -1.4389  0.9704  1.2661
21373SOL    HW265561   1.044   6.744   1.439  0.3667  0.6424 -0.3608
21374SOL     OW65562   2.810   1.291  10.858  0.1557  0.2128 -0.0621
21374SOL    HW165563   2.888   1.345  10.846  1.6831 -1.6275  0.8473
21374SOL    HW265564   2.766   1.328  10.934 -0.6911  2.1377 -1.4360
21375SOL     OW65565   1.542   6.396   7.445 -0.0139  0.3244 -0.5393
21375SOL    HW165566   1.574   6.394   7.355  2.4448 -2.5396  0.2242
21375SOL    HW265567   1.544   6.489   7.469  1.3100  0.9545 -2.7696
21376SOL     OW65568   6.585   1.434   4.462 -0.3778  0.1404  0.0694
21376SOL    HW165569   6.562   1.342   4.445  0.1045 -0.1717  1.0813
21376SOL    HW265570   6.592   1.440   4.557 -1.1726  1.4227  0.0670
21377SOL     OW65571   5.220   3.987   9.899 -0.1849 -0.6792 -0.6629
21377SOL    HW165572   5.295   4.043   9.920 -0.7089 -0.4806  0.8353
21377SOL    HW265573   5.226   3.973   9.804  0.9664  0.4465 -0.7878
21378SOL     OW65574   0.096   2.892   4.867  0.2118  0.1900  0.1593
21378SOL    HW165575   0.023   2.898   4.928  0.7828  1.7285  0.7334
21378SOL    HW265576   0.057   2.906   4.781 -0.3676 -0.4056  0.3201
21379SOL     OW65577   2.085   0.343   1.061 -0.1739  0.9222 -0.0407
21379SOL    HW165578   2.086   0.346   1.156  2.7005 -1.3793  0.1328
21379SOL    HW265579   2.176   0.353   1.035  0.1090 -3.8871 -2.0987
21380SOL     OW65580   2.155   5.841   2.663  0.0700  0.7838 -0.0359
21380SOL    HW165581   2.184   5.908   2.725  1.4885  1.0517 -0.9460
21380SOL    HW265582   2.235   5.796   2.638 -0.3776  1.0428 -2.0909
21381SOL     OW65583   5.483   7.532   8.028  0.0770 -0.0618 -0.0080
21381SOL    HW165584   5.473   7.438   8.016 -0.8193 -0.0365  0.4772
21381SOL    HW265585   5.441   7.551   8.112 -1.6827  1.0549 -1.0525
21382SOL     OW65586   5.587   1.551   8.531  0.2112  0.2231  0.1746
21382SOL    HW165587   5.622   1.464   8.512  1.4203  0.3381  1.7249
21382SOL    HW265588   5.536   1.574   8.453  0.6505 -1.4679 -0.6440
21383SOL     OW65589   6.674   5.402  10.145  0.1966  0.1033  0.5886
21383SOL    HW165590   6.673   5.496  10.128  1.6520  0.0539  0.0416
21383SOL    HW265591   6.762   5.384  10.178  0.9234 -1.4301 -1.8325
21384SOL     OW65592   7.446   0.854   0.218  0.1060  0.3415 -0.1087
21384SOL    HW165593   7.424   0.818   0.133 -0.1103  0.8277 -0.2620
21384SOL    HW265594   7.375   0.916   0.238  0.8320  1.2245 -0.1878
21385SOL     OW65595   4.488   5.260   6.453 -1.0062  0.2572  0.1455
21385SOL    HW165596   4.405   5.271   6.500 -0.4959 -0.0055  1.1368
21385SOL    HW265597   4.554   5.285   6.517 -0.2834 -0.2238 -0.4073
21386SOL     OW65598   7.968   2.458   5.477  0.1999  0.1613 -0.8937
21386SOL    HW165599   7.998   2.475   5.567 -1.3471  0.4873 -0.4100
21386SOL    HW265600   7.948   2.545   5.442 -0.1414 -0.0466 -1.2122
21387SOL     OW65601   5.719   1.342   7.428 -0.4084 -0.2691 -0.2644
21387SOL    HW165602   5.674   1.393   7.361 -0.2813  1.1529  0.6816
21387SOL    HW265603   5.734   1.256   7.388 -0.7750  0.3802 -1.8529
21388SOL     OW65604   1.107   5.325  10.734 -0.3519 -0.2164 -0.3913
21388SOL    HW165605   1.085   5.418  10.738 -1.4718 -0.3687 -2.1803
21388SOL    HW265606   1.183   5.316  10.792  0.9785  2.1692 -1.6298
21389SOL     OW65607   2.876   7.802   4.289  0.7741  0.5480  0.5312
21389SOL    HW165608   2.873   7.728   4.229  1.3864  0.8173  0.1567
21389SOL    HW265609   2.969   7.808   4.314  0.5010  0.3079  1.6750
21390SOL     OW65610   3.784   7.196   3.317  0.0932  0.0915 -0.2623
21390SOL    HW165611   3.689   7.187   3.329  0.1697 -2.7107 -0.9059
21390SOL    HW265612   3.822   7.136   3.382  1.4328  0.8094 -0.3432
21391SOL     OW65613   4.458   1.699   7.858  0.2874  0.3997 -0.1718
21391SOL    HW165614   4.386   1.661   7.807 -0.5253 -0.0049  1.2123
21391SOL    HW265615   4.524   1.723   7.793 -0.8300  0.1957 -1.4271
21392SOL     OW65616   0.168   4.582   7.100 -0.0876  0.0576  0.4395
21392SOL    HW165617   0.095   4.630   7.061 -1.6775 -2.3603  0.2321
21392SOL    HW265618   0.155   4.593   7.195 -1.2964 -1.0526  0.4356
21393SOL     OW65619   4.056   6.634   5.000 -0.9925  0.1655  1.1325
21393SOL    HW165620   4.123   6.670   4.940 -1.6319  1.1778  1.0007
21393SOL    HW265621   4.106   6.609   5.078 -0.3084 -0.0934  0.6285
21394SOL     OW65622   7.398   0.321   9.986 -0.3644 -0.5791  0.2787
21394SOL    HW165623   7.442   0.275   9.914  0.6060  1.0840 -0.2626
21394SOL    HW265624   7.453   0.303  10.063  0.2704  0.0321 -0.0243
21395SOL     OW65625   2.249   6.247  10.865 -0.2236  0.1769 -0.0437
21395SOL    HW165626   2.302   6.248  10.945 -1.4026 -1.1221  0.7967
21395SOL    HW265627   2.309   6.276  10.796  1.8856 -2.0836  0.7056
21396SOL     OW65628   6.302   5.224   4.510  0.2232 -0.7545 -0.5575
21396SOL    HW165629   6.330   5.152   4.453  2.6574 -1.5882  1.4742
21396SOL    HW265630   6.283   5.183   4.594 -1.5515  0.6372 -0.2111
21397SOL     OW65631   6.843   3.857   8.939 -0.5326 -0.0285 -0.1131
21397SOL    HW165632   6.847   3.762   8.947 -1.8416 -0.1642 -0.8270
21397SOL    HW265633   6.890   3.889   9.016 -1.1400 -1.2507  0.8089
21398SOL     OW65634   5.048   2.442   4.645  0.6479 -0.4101 -0.1468
21398SOL    HW165635   4.959   2.420   4.672  0.7001 -1.7677 -0.9970
21398SOL    HW265636   5.091   2.358   4.634  2.0221  0.2233  0.1505
21399SOL     OW65637   7.741   3.358   0.303 -0.5258  0.3280  0.1841
21399SOL    HW165638   7.731   3.265   0.325 -0.8669  0.2937 -0.1045
21399SOL    HW265639   7.757   3.358   0.209 -0.0262  0.5344  0.2667
21400SOL     OW65640   6.552   5.030   8.628 -0.0491 -0.0237  0.3740
21400SOL    HW165641   6.514   4.983   8.553  0.4292 -0.9454  0.6937
21400SOL    HW265642   6.647   5.016   8.619  0.0117 -0.1642  1.1616
21401SOL     OW65643   4.136   4.122   7.906 -0.1280 -0.1524 -0.4766
21401SOL    HW165644   4.132   4.174   7.986 -0.9718 -0.2166 -0.4656
21401SOL    HW265645   4.213   4.066   7.917 -0.7721 -0.8353  0.7241
21402SOL     OW65646   0.104   7.096   7.936  0.5533 -0.0275 -0.4342
21402SOL    HW165647   0.061   7.142   7.864 -0.9782 -1.2012 -0.3178
21402SOL    HW265648   0.041   7.100   8.008 -0.2120 -3.2247 -0.7571
21403SOL     OW65649   4.855   5.879   1.308 -0.1037  0.0129 -0.6399
21403SOL    HW165650   4.948   5.887   1.287  0.7893  0.2920  2.8301
21403SOL    HW265651   4.843   5.787   1.329 -0.4719  0.0800 -0.5480
21404SOL     OW65652   5.687   7.599   1.443 -0.2754 -0.6895  0.3571
21404SOL    HW165653   5.734   7.541   1.502 -0.7759 -2.0868 -0.5763
21404SOL    HW265654   5.750   7.622   1.375  0.7056  1.9474  1.9890
21405SOL     OW65655   1.075   2.833   0.717 -0.1438  0.5135 -0.3876
21405SOL    HW165656   1.112   2.788   0.641 -0.9529 -0.1138 -0.4276
21405SOL    HW265657   1.118   2.793   0.793  0.8379  1.3048 -0.5135
21406SOL     OW65658   6.757   3.648   9.942 -0.0481  0.3413 -0.0041
21406SOL    HW165659   6.713   3.694  10.013 -0.3533 -0.4404  0.3286
21406SOL    HW265660   6.798   3.717   9.890 -0.9442  1.0271  0.1658
21407SOL     OW65661   5.481   7.536  11.734  0.6076  0.7122  0.2948
21407SOL    HW165662   5.438   7.512  11.817  0.2534  0.6973  0.1109
21407SOL    HW265663   5.439   7.618  11.708  0.7709  0.7554  0.1692
21408SOL     OW65664   6.880   0.661   3.850 -0.5430 -0.4482 -0.3588
21408SOL    HW165665   6.874   0.661   3.945 -0.0638 -0.1664 -0.3239
21408SOL    HW265666   6.813   0.724   3.822 -0.9624 -0.8295 -0.2371
21409SOL     OW65667   6.515   0.163   5.840  0.0076 -0.7284  0.0448
21409SOL    HW165668   6.466   0.081   5.835 -0.7590 -0.2808  0.0030
21409SOL    HW265669   6.505   0.202   5.754  0.1644 -0.4729  0.1420
21410SOL     OW65670   1.497   3.820   0.996 -0.3924 -0.0098  0.3476
21410SOL    HW165671   1.544   3.752   0.948 -1.4580 -0.7500  0.3019
21410SOL    HW265672   1.438   3.771   1.053 -2.0736  0.8677 -0.5665
21411SOL     OW65673   2.243   0.917   1.716 -0.0145 -0.4168  0.2913
21411SOL    HW165674   2.227   0.829   1.682 -0.0331 -0.7336  1.0925
21411SOL    HW265675   2.273   0.967   1.640 -0.4967 -0.9745 -0.2865
21412SOL     OW65676   3.767   7.345   8.667  0.0263  0.0237  0.4991
21412SOL    HW165677   3.746   7.425   8.715 -1.6966  0.3382 -0.6919
21412SOL    HW265678   3.685   7.296   8.666  0.3828 -0.5766 -0.9729
21413SOL     OW65679   6.675   5.633   9.129 -0.6521  0.2189 -0.1666
21413SOL    HW165680   6.750   5.636   9.070 -0.0557  0.3198  0.5774
21413SOL    HW265681   6.713   5.614   9.215 -1.5055  0.0319  0.1793
21414SOL     OW65682   2.433   6.037   6.308 -0.1660  0.6787 -0.0445
21414SOL    HW165683   2.355   6.072   6.264 -0.3313  0.7778  0.3230
21414SOL    HW265684   2.503   6.099   6.287 -0.4318  1.1731  0.5119
21415SOL     OW65685   3.617   7.769   9.023  0.1398  0.0887  0.2031
21415SOL    HW165686   3.620   7.680   9.059 -3.0593 -0.3201 -0.3117
21415SOL    HW265687   3.598   7.756   8.930 -1.1468  1.3192  0.2765
21416SOL     OW65688   0.248   1.845   0.950 -0.5242  0.4293 -0.0986
21416SOL    HW165689   0.213   1.932   0.928 -0.6731  0.0660 -1.3945
21416SOL    HW265690   0.294   1.858   1.033 -1.3254  1.5420  0.1954
21417SOL     OW65691   7.298   7.157   5.812 -0.8273  0.1737 -0.6752
21417SOL    HW165692   7.230   7.157   5.745  0.3638 -0.0013 -1.9258
21417SOL    HW265693   7.330   7.247   5.813  0.5050 -0.2481 -1.8041
21418SOL     OW65694   3.030   6.899   4.859  0.3988  0.0739  0.7621
21418SOL    HW165695   3.035   6.946   4.943 -0.0844  0.6987  0.4501
21418SOL    HW265696   2.953   6.842   4.869 -0.3723  1.0043  0.3355
21419SOL     OW65697   0.685   7.573   1.624 -0.4895  0.0318  0.1334
21419SOL    HW165698   0.755   7.546   1.564 -0.5941  0.3081 -0.1116
21419SOL    HW265699   0.729   7.626   1.691 -0.2150 -1.0276  0.8309
21420SOL     OW65700   2.073   3.210   9.999 -0.8413 -0.0512  0.1654
21420SOL    HW165701   2.088   3.223   9.905  0.9828  0.7873  0.5213
21420SOL    HW265702   1.980   3.191  10.006 -1.3252  1.3371 -1.6663
21421SOL     OW65703   0.629   5.046   6.023  0.0594 -0.2563 -0.6416
21421SOL    HW165704   0.709   5.045   5.970  1.3169 -1.0203  1.1836
21421SOL    HW265705   0.656   5.081   6.108 -1.2228 -1.8357  0.4884
21422SOL     OW65706   1.757   7.944   3.085  0.0233  1.1117  0.5250
21422SOL    HW165707   1.785   7.985   3.003  0.6764  0.7819  0.5810
21422SOL    HW265708   1.662   7.934   3.076  0.0826  1.1562 -0.1576
21423SOL     OW65709   5.465   4.447   5.554  0.1875 -0.5280 -0.0610
21423SOL    HW165710   5.536   4.399   5.511 -0.8615 -1.2247 -1.0899
21423SOL    HW265711   5.506   4.491   5.628  1.6246 -1.1548 -0.4635
21424SOL     OW65712   6.215   7.285   0.721 -0.6485  0.6281 -0.0076
21424SOL    HW165713   6.296   7.279   0.671 -1.1130 -0.0807 -0.6960
21424SOL    HW265714   6.148   7.306   0.655 -0.9510  1.7193  0.6255
21425SOL     OW65715   5.324   0.382   8.691  0.2544  0.2151  0.5063
21425SOL    HW165716   5.304   0.367   8.599  1.1079  0.6534  0.2372
21425SOL    HW265717   5.363   0.300   8.722  0.7176  0.3361  0.2530
21426SOL     OW65718   4.013   7.960  12.146  0.6876  0.0661  0.3140
21426SOL    HW165719   4.085   7.898  12.157 -0.4787 -1.7203 -1.3840
21426SOL    HW265720   3.975   7.968  12.233  2.1604  0.0876  0.9898
21427SOL     OW65721   2.260   0.120  10.609 -0.0796 -0.6338 -0.5262
21427SOL    HW165722   2.340   0.165  10.635  0.7815 -1.8637 -0.9424
21427SOL    HW265723   2.273   0.029  10.637 -2.0436 -0.5335  0.9206
21428SOL     OW65724   6.395   4.038   5.914  0.0003  0.4743 -0.0390
21428SOL    HW165725   6.343   4.026   5.835 -1.6146  0.0628  1.0438
21428SOL    HW265726   6.479   4.074   5.883 -1.2128  1.9692 -1.7826
21429SOL     OW65727   1.220   7.605   3.208 -0.2666 -0.4988 -0.2100
21429SOL    HW165728   1.292   7.664   3.231 -1.1397  0.0028  1.3790
21429SOL    HW265729   1.242   7.523   3.252 -0.4744 -0.4703 -0.0559
21430SOL     OW65730   6.442   2.635   1.347 -0.6742  0.0880  0.1629
21430SOL    HW165731   6.352   2.666   1.360 -0.9488 -0.3112 -0.7101
21430SOL    HW265732   6.434   2.540   1.339 -0.2617  0.1091 -0.5732
21431SOL     OW65733   2.493   5.399  12.438  0.7285  0.3208  0.0592
21431SOL    HW165734   2.577   5.429  12.402  0.1529  0.4487 -1.2168
21431SOL    HW265735   2.441   5.478  12.448  0.2498  0.0860 -0.5261
21432SOL     OW65736   2.641   5.877   5.128  0.6337  0.0755 -0.0755
21432SOL    HW165737   2.583   5.847   5.199 -0.9430  0.8626 -0.9574
21432SOL    HW265738   2.688   5.951   5.167 -1.8115  1.9400 -0.3590
21433SOL     OW65739   6.045   6.195   3.518  0.0368  0.1862 -0.7152
21433SOL    HW165740   6.014   6.132   3.453  0.8835  0.4005 -1.3544
21433SOL    HW265741   5.970   6.212   3.574 -0.7291  0.0193 -1.6707
21434SOL     OW65742   6.126   2.989   8.861  0.8489 -0.3983 -0.1451
21434SOL    HW165743   6.202   3.044   8.840  1.9078 -1.3239  1.0811
21434SOL    HW265744   6.098   2.953   8.777 -0.2514  2.3895 -1.0937
21435SOL     OW65745   1.436   3.770   5.567  0.0341 -0.3089 -0.2389
21435SOL    HW165746   1.349   3.772   5.608  0.0060  0.7293 -0.3309
21435SOL    HW265747   1.490   3.724   5.631 -0.5259 -0.7698 -0.0808
21436SOL     OW65748   1.721   1.536   5.428 -0.2088 -0.0263 -0.9416
21436SOL    HW165749   1.632   1.570   5.415 -0.7041 -0.3833  1.1403
21436SOL    HW265750   1.708   1.453   5.473  1.1946  1.6264  2.8699
21437SOL     OW65751   2.466   0.685  10.162  0.5434  0.2584 -0.1307
21437SOL    HW165752   2.403   0.650  10.100  1.4149  0.8071 -1.3796
21437SOL    HW265753   2.441   0.648  10.247 -0.3794 -0.9097 -0.8909
21438SOL     OW65754   0.164   6.137   2.604 -0.2489 -0.3295  0.4085
21438SOL    HW165755   0.151   6.169   2.515 -2.5746  0.8080  1.0729
21438SOL    HW265756   0.236   6.190   2.638  0.6993 -0.8056 -0.7620
21439SOL     OW65757   3.592   2.743   0.218  0.0388 -0.0157  0.0131
21439SOL    HW165758   3.572   2.837   0.211 -1.7560 -0.2309  1.5312
21439SOL    HW265759   3.645   2.735   0.297 -1.0281 -0.4271  0.7010
21440SOL     OW65760   5.589   4.916   7.020  0.8378  0.0725  0.0632
21440SOL    HW165761   5.672   4.932   6.974 -0.6321 -1.7209 -3.6331
21440SOL    HW265762   5.539   4.997   7.008  1.8578  1.0936  2.1555
21441SOL     OW65763   3.227   7.569   4.551 -0.2895  0.8154 -0.1952
21441SOL    HW165764   3.180   7.648   4.521 -0.3642  0.0648 -2.2573
21441SOL    HW265765   3.186   7.547   4.634 -1.8036  1.7042 -0.6584
21442SOL     OW65766   7.078   4.512  11.039 -0.1470  0.0466  0.3786
21442SOL    HW165767   7.113   4.601  11.033  0.2423 -0.0770  0.7610
21442SOL    HW265768   7.153   4.456  11.018 -0.9172 -0.1685 -2.2560
21443SOL     OW65769   1.042   2.386   0.217 -0.6472 -0.7307  0.1194
21443SOL    HW165770   1.064   2.295   0.196 -0.3744 -0.9444  1.2332
21443SOL    HW265771   0.996   2.380   0.301 -2.6179 -0.0422 -0.8546
21444SOL     OW65772   2.643   4.591   5.156 -0.6173  0.3515  0.0026
21444SOL    HW165773   2.614   4.637   5.235 -2.1697  0.1364 -0.4117
21444SOL    HW265774   2.626   4.499   5.173 -0.3822  0.2381 -0.3485
21445SOL     OW65775   0.450   0.316   7.385 -0.3530 -0.4974 -0.2034
21445SOL    HW165776   0.507   0.350   7.454 -1.7323 -0.1699  0.8238
21445SOL    HW265777   0.425   0.393   7.334  1.7830 -0.9029 -2.0295
21446SOL     OW65778   5.028   7.225   9.819  0.0588 -0.3106  0.0368
21446SOL    HW165779   5.031   7.131   9.834  0.3901 -0.3260 -0.1004
21446SOL    HW265780   4.941   7.241   9.782 -1.0474 -0.1765  2.4927
21447SOL     OW65781   1.386   1.878   6.362 -0.1016  0.3887 -0.1478
21447SOL    HW165782   1.317   1.886   6.427 -0.3286  1.7895 -0.5247
21447SOL    HW265783   1.351   1.815   6.298 -0.4242  0.0113  0.3912
21448SOL     OW65784   3.901   0.133   8.022 -0.7824 -0.2121  0.6410
21448SOL    HW165785   3.844   0.144   8.098 -0.7587 -1.2065  0.8104
21448SOL    HW265786   3.985   0.170   8.049 -1.3220  1.2842  0.3833
21449SOL     OW65787   4.846   4.656   6.952  0.1051 -0.2889 -0.3371
21449SOL    HW165788   4.889   4.664   6.867  1.9031 -2.5128  0.2690
21449SOL    HW265789   4.914   4.677   7.016 -0.9726  0.4692  0.6067
21450SOL     OW65790   6.869   7.549   8.334  0.0168  0.0330 -0.0081
21450SOL    HW165791   6.912   7.599   8.404  0.7248 -0.8012  0.1794
21450SOL    HW265792   6.907   7.583   8.253 -0.4528  0.6702  0.0291
21451SOL     OW65793   5.027   2.850  11.493 -0.1054 -0.2494  0.3722
21451SOL    HW165794   5.108   2.881  11.452  1.1699 -0.6327  2.4549
21451SOL    HW265795   5.051   2.834  11.584 -2.0944 -2.1416  0.6366
21452SOL     OW65796   0.751   1.603   1.675 -0.1602  0.1325  0.0778
21452SOL    HW165797   0.753   1.516   1.714 -1.5147 -0.2451 -0.6140
21452SOL    HW265798   0.805   1.595   1.596 -0.1311 -0.0359  0.1142
21453SOL     OW65799   6.514   4.797   2.717  0.4189  0.0070 -0.4348
21453SOL    HW165800   6.465   4.834   2.644  0.1551  1.5103  0.4594
21453SOL    HW265801   6.596   4.767   2.679  0.8227  1.9381 -1.1580
21454SOL     OW65802   0.013   0.952   4.815 -0.7683  0.8114  0.2260
21454SOL    HW165803  -0.037   1.029   4.787  0.8937  2.5629  1.8007
21454SOL    HW265804   0.089   0.951   4.757 -0.6098  0.5644  0.4381
21455SOL     OW65805   0.471   2.317   0.934  0.1658 -0.3700 -0.2510
21455SOL    HW165806   0.518   2.290   1.013 -0.6464  0.7948  0.6594
21455SOL    HW265807   0.379   2.306   0.956 -0.1677  1.9766 -0.2262
21456SOL     OW65808   7.308   7.887   6.217  0.6153 -0.4915  0.1596
21456SOL    HW165809   7.298   7.981   6.200 -0.1375 -0.9029 -1.9515
21456SOL    HW265810   7.403   7.872   6.211  0.6234 -0.0907 -0.9262
21457SOL     OW65811   2.166   4.791   7.284 -0.3765  0.4355 -0.0814
21457SOL    HW165812   2.260   4.775   7.279 -0.1592  1.6035 -0.1705
21457SOL    HW265813   2.130   4.748   7.207  0.1436  0.3580 -0.2845
21458SOL     OW65814   0.258   0.703   2.964  0.7885  0.1987  0.2853
21458SOL    HW165815   0.347   0.680   2.991  0.1447 -1.4497  1.1244
21458SOL    HW265816   0.211   0.718   3.046 -0.1169 -0.6102 -0.0656
21459SOL     OW65817   0.721   0.012   0.275 -0.4122  0.1043 -0.2350
21459SOL    HW165818   0.780   0.085   0.257  0.9364 -0.9096 -0.0528
21459SOL    HW265819   0.642   0.053   0.311  0.4691  1.4339  0.2373
21460SOL     OW65820   4.550   4.567   3.847  0.2501 -0.2654 -0.1355
21460SOL    HW165821   4.537   4.475   3.869 -0.6894 -0.3081 -0.7990
21460SOL    HW265822   4.593   4.604   3.925  0.1324 -1.1386  0.3611
21461SOL     OW65823   1.285   5.120  11.430 -0.2545 -0.3623  0.0407
21461SOL    HW165824   1.199   5.090  11.403  0.2949 -0.3167 -1.8966
21461SOL    HW265825   1.275   5.141  11.523 -2.4124 -0.0354 -0.2120
21462SOL     OW65826   1.748   3.800   0.414  0.3754  0.2365 -0.6622
21462SOL    HW165827   1.691   3.724   0.400  0.6185 -0.6632  2.3615
21462SOL    HW265828   1.836   3.767   0.397  0.3142  0.5234 -1.5739
21463SOL     OW65829   2.923   1.725   4.884  0.4098 -0.3209 -0.2860
21463SOL    HW165830   2.959   1.757   4.802 -1.1979  1.0802 -0.5050
21463SOL    HW265831   2.878   1.643   4.860  2.7942 -1.7870 -0.1025
21464SOL     OW65832   6.990   7.526   4.701  0.7944 -0.0499 -0.5444
21464SOL    HW165833   6.937   7.595   4.740  0.2079 -0.5072 -0.5308
21464SOL    HW265834   7.071   7.570   4.675  0.5811  0.5612 -0.1825
21465SOL     OW65835   4.851   1.338   3.919 -0.0441 -0.1877 -0.2313
21465SOL    HW165836   4.824   1.429   3.924  0.5384 -0.0553  0.6680
21465SOL    HW265837   4.788   1.291   3.973 -0.2002 -0.2945 -0.5006
21466SOL     OW65838   6.211   1.173  10.978 -0.2412 -0.2007  0.3607
21466SOL    HW165839   6.276   1.181  10.908 -0.3074  1.6891  0.4668
21466SOL    HW265840   6.129   1.201  10.937 -0.7523 -1.3054  0.5877
21467SOL     OW65841   6.640   1.374  10.155 -0.2162  0.1775  0.0065
21467SOL    HW165842   6.625   1.466  10.135  0.6764  0.6081  1.2012
21467SOL    HW265843   6.605   1.362  10.243  0.1079 -0.5000  0.0510
21468SOL     OW65844   5.939   7.762   0.720 -0.3270 -0.6729  0.1982
21468SOL    HW165845   5.950   7.727   0.808  0.7880  0.1799  0.4233
21468SOL    HW265846   6.024   7.748   0.678 -0.2488  0.5521 -0.1075
21469SOL     OW65847   4.534   6.369   8.492 -0.2057 -0.7230  0.2489
21469SOL    HW165848   4.490   6.293   8.454  0.9584 -1.0636 -0.4489
21469SOL    HW265849   4.465   6.415   8.540 -1.7648 -0.2303 -2.2961
21470SOL     OW65850   0.751   1.734   7.199  0.9200  0.1519 -0.2775
21470SOL    HW165851   0.806   1.810   7.177  0.0603  1.0157  0.4795
21470SOL    HW265852   0.744   1.686   7.116  0.7092  1.4025 -1.0153
21471SOL     OW65853   7.901   3.158  11.812  0.2553 -0.4874  0.4009
21471SOL    HW165854   7.965   3.115  11.755  0.9778  1.3000 -0.2102
21471SOL    HW265855   7.916   3.121  11.898 -0.2802 -2.6367 -0.3668
21472SOL     OW65856   3.673   1.246   4.922  0.0005  0.0710 -1.0766
21472SOL    HW165857   3.658   1.157   4.957 -2.4916  0.5791 -0.6516
21472SOL    HW265858   3.679   1.301   5.000 -0.5167  0.5456 -1.3695
21473SOL     OW65859   4.897   2.441  10.474  0.0739  0.0217 -0.4244
21473SOL    HW165860   4.932   2.354  10.495 -0.9660 -0.6208 -1.2499
21473SOL    HW265861   4.975   2.493  10.454  0.7490 -0.5757  0.5337
21474SOL     OW65862   7.923   7.959   9.045 -0.1906  0.5269 -0.3112
21474SOL    HW165863   7.862   7.887   9.058  0.1127 -0.0293 -1.7445
21474SOL    HW265864   8.002   7.933   9.092 -0.3330  0.2546 -0.2255
21475SOL     OW65865   0.012   4.345  11.449  0.2872 -0.5064  0.3572
21475SOL    HW165866  -0.029   4.315  11.368 -0.4717  0.6658  0.3020
21475SOL    HW265867   0.099   4.303  11.447 -0.0357 -1.1869 -0.6246
21476SOL     OW65868   1.180   0.236   2.910  0.6458  0.0315  0.0973
21476SOL    HW165869   1.126   0.315   2.904 -0.0575 -0.2935  1.6100
21476SOL    HW265870   1.260   0.264   2.953  0.4403 -0.0464  0.5373
21477SOL     OW65871   2.887   7.844   1.712  0.2416  0.0170  0.0767
21477SOL    HW165872   2.887   7.911   1.644  0.7194 -0.0980 -0.0450
21477SOL    HW265873   2.852   7.887   1.789 -0.6886  0.0365 -0.3493
21478SOL     OW65874   6.471   3.534   7.838  0.2546  0.3473  0.7474
21478SOL    HW165875   6.499   3.449   7.804 -0.5489 -0.1665  1.3492
21478SOL    HW265876   6.377   3.525   7.853 -0.1534  1.8450 -0.6181
21479SOL     OW65877   1.525   1.676   2.252  0.4134  0.1958 -0.3945
21479SOL    HW165878   1.546   1.588   2.222 -1.3908 -0.3955 -0.0390
21479SOL    HW265879   1.562   1.681   2.340  2.1843  0.5043 -1.1184
21480SOL     OW65880   4.985   7.128   3.519 -0.3863  0.2653  0.0981
21480SOL    HW165881   5.034   7.046   3.530 -0.1075  0.1871 -1.4988
21480SOL    HW265882   4.930   7.134   3.597  0.2704 -0.9685  0.6835
21481SOL     OW65883   7.680   4.206   3.141 -0.1195  0.5143  0.0467
21481SOL    HW165884   7.587   4.210   3.118 -0.4562 -1.7153  0.8369
21481SOL    HW265885   7.718   4.144   3.079  0.4977  0.1751  0.7470
21482SOL     OW65886   4.923   6.476   5.916  0.0505  0.2254 -0.0829
21482SOL    HW165887   4.943   6.553   5.864  0.3157  0.4335  0.3168
21482SOL    HW265888   4.990   6.412   5.892 -0.2336  0.0837 -0.4933
21483SOL     OW65889   4.814   1.264   5.405  0.4610 -0.4298  0.2806
21483SOL    HW165890   4.832   1.258   5.311  3.0518 -1.0778  0.7267
21483SOL    HW265891   4.862   1.190   5.443 -1.0810 -0.5913  2.0739
21484SOL     OW65892   6.051   6.167   2.675  0.2343  0.1329 -0.0214
21484SOL    HW165893   6.107   6.093   2.651  0.5993  0.6657 -0.8623
21484SOL    HW265894   6.018   6.200   2.592  1.4028  1.9494  0.1833
21485SOL     OW65895   7.785   2.139   3.539 -0.0534  0.0010 -0.4031
21485SOL    HW165896   7.707   2.083   3.542 -0.1942 -0.0076 -2.5456
21485SOL    HW265897   7.852   2.088   3.585 -0.4689 -1.4875 -1.3697
21486SOL     OW65898   5.432   5.658  11.418 -0.0292  0.0949  0.0997
21486SOL    HW165899   5.356   5.628  11.368 -1.0877  2.0466  0.4122
21486SOL    HW265900   5.410   5.639  11.509  0.9925 -1.5804  0.0363
21487SOL     OW65901   4.260   2.696   6.624 -0.0176  0.5946 -0.4892
21487SOL    HW165902   4.345   2.708   6.667 -0.2731  1.2851 -0.1733
21487SOL    HW265903   4.246   2.601   6.628 -0.5402  0.7013  1.9611
21488SOL     OW65904   6.182   2.494  10.389  0.1341 -0.1647  0.3001
21488SOL    HW165905   6.171   2.400  10.405  0.0644 -0.2808 -0.3963
21488SOL    HW265906   6.216   2.500  10.300 -0.4198  0.4904  0.1174
21489SOL     OW65907   4.989   2.134   1.388 -0.6710  0.4406 -0.0866
21489SOL    HW165908   4.923   2.181   1.338 -1.5859  0.1041  0.7817
21489SOL    HW265909   5.071   2.152   1.342 -1.5158 -0.1270 -1.8930
21490SOL     OW65910   6.057   7.671   6.913  0.0748  0.2695 -0.1063
21490SOL    HW165911   6.094   7.629   6.991  1.2084  1.2598 -0.0834
21490SOL    HW265912   6.031   7.598   6.857  0.5589 -0.4652  0.5967
21491SOL     OW65913   6.813   5.341   5.759  0.1154 -0.2480  0.6578
21491SOL    HW165914   6.732   5.388   5.781 -1.1334 -1.1452 -1.7489
21491SOL    HW265915   6.790   5.249   5.766  0.3520 -0.5461 -1.7054
21492SOL     OW65916   4.580   0.424   9.440 -0.0496 -0.1357  0.1910
21492SOL    HW165917   4.595   0.385   9.526 -0.3928 -1.8891 -0.4863
21492SOL    HW265918   4.526   0.501   9.458  1.9997  1.0357  1.7545
21493SOL     OW65919   1.715   3.392   8.011 -0.3909  0.2187  0.7845
21493SOL    HW165920   1.733   3.469   7.957  1.2388 -0.4231  0.3829
21493SOL    HW265921   1.691   3.324   7.948  1.6961 -0.5831  0.8120
21494SOL     OW65922   4.516   6.116   3.361  0.1633  0.0488 -0.3084
21494SOL    HW165923   4.541   6.208   3.345 -0.2338  0.3453  0.7489
21494SOL    HW265924   4.436   6.121   3.413 -0.8552 -0.9095 -1.7088
21495SOL     OW65925   2.104   0.321   4.873  0.2340 -0.3548  0.2404
21495SOL    HW165926   2.069   0.275   4.949 -0.1003 -0.1737  0.1947
21495SOL    HW265927   2.126   0.408   4.905 -2.7400  0.7771 -0.5304
21496SOL     OW65928   1.795   4.570   6.330  0.1071 -0.0653  0.3699
21496SOL    HW165929   1.749   4.554   6.248  1.5663  0.3001 -0.5405
21496SOL    HW265930   1.835   4.486   6.352 -0.2333 -0.1473  0.6948
21497SOL     OW65931   4.629   5.241  11.493  0.3840 -0.1365  0.0763
21497SOL    HW165932   4.621   5.216  11.585  5.6415 -2.6416  0.2806
21497SOL    HW265933   4.598   5.165  11.445 -1.4563  0.7988 -0.3075
21498SOL     OW65934   6.977   0.048  11.218 -0.2452  0.1619 -0.1357
21498SOL    HW165935   7.030   0.090  11.150  0.8930 -0.6044  0.2395
21498SOL    HW265936   6.888   0.050  11.184  0.3151 -0.3695 -1.7558
21499SOL     OW65937   6.020   3.357   5.284 -0.4660  0.1582  0.4055
21499SOL    HW165938   6.030   3.382   5.376 -2.2272 -1.5872  1.1549
21499SOL    HW265939   6.002   3.263   5.287  0.0798 -0.0674 -1.8002
21500SOL     OW65940   5.628   7.605  12.389  0.0507  0.1772 -0.0706
21500SOL    HW165941   5.577   7.670  12.438  0.2848  0.3955 -0.1132
21500SOL    HW265942   5.563   7.560  12.335  0.1246  1.7576 -1.5703
21501SOL     OW65943   6.085   2.220   1.194 -0.3238  0.2384  0.4556
21501SOL    HW165944   6.121   2.283   1.133 -2.1589  0.4809 -0.4499
21501SOL    HW265945   6.160   2.169   1.224  1.3587  3.2248  1.7538
21502SOL     OW65946   5.762   0.966  12.288  0.0295  0.0604 -0.5800
21502SOL    HW165947   5.703   0.998  12.220 -1.2761  0.2919  0.6189
21502SOL    HW265948   5.830   1.033  12.295 -0.1738  0.3392 -1.2266
21503SOL     OW65949   5.169   6.280   9.663  0.3838  0.2091  0.1790
21503SOL    HW165950   5.153   6.367   9.629 -0.2970 -0.6760 -1.9550
21503SOL    HW265951   5.132   6.221   9.597 -1.3102 -1.6893  2.6017
21504SOL     OW65952   2.466   7.934   8.197 -0.0337  0.7414 -0.2900
21504SOL    HW165953   2.453   7.841   8.182  1.3137  0.8076 -2.3822
21504SOL    HW265954   2.542   7.939   8.255  0.4851  0.5272 -0.9407
21505SOL     OW65955   4.787   1.421  10.358  0.4560  0.4322 -0.0771
21505SOL    HW165956   4.758   1.460  10.275 -1.9212 -0.6776  0.1462
21505SOL    HW265957   4.779   1.492  10.422 -1.8253  0.2360 -0.0605
21506SOL     OW65958   2.551   7.214   4.620  0.0715  0.2641  0.3073
21506SOL    HW165959   2.544   7.304   4.589 -1.5702  0.9665  2.4819
21506SOL    HW265960   2.461   7.186   4.635  0.5661 -1.6183  0.0767
21507SOL     OW65961   6.443   0.059  10.173  0.0266  0.3691  0.6644
21507SOL    HW165962   6.359   0.025  10.144  0.5488 -1.4356  1.1659
21507SOL    HW265963   6.499   0.056  10.095 -0.4635  2.0400  0.2022
21508SOL     OW65964   7.655   2.360   3.436 -0.3822  0.4916  0.3205
21508SOL    HW165965   7.706   2.437   3.460 -0.6376  1.1323 -1.1098
21508SOL    HW265966   7.693   2.289   3.489  0.1454  1.4943  1.3242
21509SOL     OW65967   5.820   6.223   3.654 -0.7746 -0.0799  0.6024
21509SOL    HW165968   5.727   6.203   3.652 -0.8450  0.1562  1.4294
21509SOL    HW265969   5.843   6.225   3.747 -0.5432  2.5738  0.5825
21510SOL     OW65970   0.379   7.753  10.637  0.6524 -0.7026  0.3905
21510SOL    HW165971   0.419   7.741  10.723  1.9332 -0.8944 -0.2193
21510SOL    HW265972   0.351   7.845  10.636  2.5108 -0.1103  0.2491
21511SOL     OW65973   0.560   1.214   8.461  0.5818 -0.4713  0.0126
21511SOL    HW165974   0.478   1.234   8.416  0.2478 -1.5510  0.1135
21511SOL    HW265975   0.595   1.300   8.487  0.4595  0.1402 -1.7139
21512SOL     OW65976   5.870   1.983   8.940  0.5593  0.0364 -0.1133
21512SOL    HW165977   5.776   1.967   8.925  0.3147  1.7751 -0.7124
21512SOL    HW265978   5.872   2.063   8.993  1.7025 -0.4708  0.6488
21513SOL     OW65979   4.333   4.257   8.311  0.3354  0.2033  0.1684
21513SOL    HW165980   4.389   4.321   8.356  1.9593 -0.2844 -1.0534
21513SOL    HW265981   4.391   4.183   8.292 -0.0296  0.5828 -3.1402
21514SOL     OW65982   5.772   2.027   0.084 -0.2712 -0.3267  0.3455
21514SOL    HW165983   5.788   2.058  -0.005  0.0093  0.9903  0.8410
21514SOL    HW265984   5.702   1.961   0.073 -0.8417  0.4166 -0.7479
21515SOL     OW65985   2.861   5.041  11.588 -0.1822  0.0960 -0.1650
21515SOL    HW165986   2.830   4.961  11.544  0.9160 -0.3148 -0.2217
21515SOL    HW265987   2.954   5.045  11.568 -0.2729  1.5798 -0.4290
21516SOL     OW65988   1.668   2.529  12.224 -0.2409  0.5423 -0.4718
21516SOL    HW165989   1.757   2.509  12.254 -0.1512  1.1405 -0.3275
21516SOL    HW265990   1.626   2.443  12.214  0.8069  0.1738 -1.9616
21517SOL     OW65991   4.747   7.940   1.756 -0.4471 -0.1293 -0.2189
21517SOL    HW165992   4.842   7.939   1.754 -0.4533 -0.8500 -0.5152
21517SOL    HW265993   4.725   8.007   1.821  0.2841 -1.0251  0.9983
21518SOL     OW65994   5.057   7.071   9.004 -0.9867  0.3410 -0.5562
21518SOL    HW165995   5.086   7.030   8.922 -2.7558  0.1774 -1.1335
21518SOL    HW265996   5.028   6.997   9.059 -0.1622  0.4829  0.0976
21519SOL     OW65997   0.554   3.560   8.846  0.0665 -0.0134  1.1143
21519SOL    HW165998   0.575   3.650   8.824 -0.7525  0.3317  1.6932
21519SOL    HW265999   0.463   3.562   8.875  0.0098 -1.0371  1.0737
21520SOL     OW66000   1.371   5.336   5.902  0.4522  0.3182  0.3737
21520SOL    HW166001   1.361   5.427   5.876  0.0176  0.4885  1.1185
21520SOL    HW266002   1.332   5.286   5.831  0.9462  0.7021 -0.1701
21521SOL     OW66003   2.468   0.212   4.453 -0.5324  0.1302  0.1062
21521SOL    HW166004   2.463   0.292   4.401  0.7799  0.0359 -0.1838
21521SOL    HW266005   2.498   0.145   4.391  0.3721 -0.1290  0.8050
21522SOL     OW66006   6.836   1.150   5.895  0.1968  0.3229  0.5737
21522SOL    HW166007   6.825   1.084   5.828  2.1547  0.6374 -0.1138
21522SOL    HW266008   6.762   1.209   5.884 -1.6264 -1.7134  1.2432
21523SOL     OW66009   4.114   3.209   8.062 -0.5649  0.6897 -0.0246
21523SOL    HW166010   4.097   3.298   8.032  2.1542  1.1542 -0.3902
21523SOL    HW266011   4.190   3.216   8.120  0.2419 -1.4714 -0.7107
21524SOL     OW66012   7.491   2.639   0.279 -0.2865 -0.1321 -0.1187
21524SOL    HW166013   7.513   2.546   0.277  1.4927  0.1369  2.0558
21524SOL    HW266014   7.576   2.683   0.275 -1.0664  1.4043 -0.5571
21525SOL     OW66015   4.439   6.014   7.053  0.0637 -0.6018  0.3790
21525SOL    HW166016   4.385   5.949   7.007 -0.8312 -0.0371  0.6115
21525SOL    HW266017   4.469   6.073   6.983  0.0107 -0.6614  0.3051
21526SOL     OW66018   3.045   0.986   7.153 -0.2079 -0.2422 -0.5223
21526SOL    HW166019   3.027   0.894   7.130  0.9336 -0.6937  0.3115
21526SOL    HW266020   3.093   1.020   7.078  0.3796 -0.6728 -0.3477
21527SOL     OW66021   4.334   7.074   7.314  0.0416  0.0944  0.0279
21527SOL    HW166022   4.271   7.027   7.260  1.6766 -2.6030  0.3131
21527SOL    HW266023   4.413   7.080   7.260  0.8068 -0.1425  1.0893
21528SOL     OW66024   7.948   7.075  11.024 -0.3317 -0.2914  0.2877
21528SOL    HW166025   7.868   7.128  11.032 -0.7087 -0.2713 -2.5472
21528SOL    HW266026   7.932   6.999  11.080 -1.8009  0.3264  0.7679
21529SOL     OW66027   4.840   5.097   4.753  0.5988 -0.1067 -0.2271
21529SOL    HW166028   4.853   5.021   4.809  1.0886 -0.5141 -0.8891
21529SOL    HW266029   4.793   5.063   4.676  0.4362  0.3394 -0.3305
21530SOL     OW66030   3.157   1.909   9.143  0.2294 -0.1037  0.1832
21530SOL    HW166031   3.070   1.883   9.112  0.5285 -1.6709  0.5450
21530SOL    HW266032   3.188   1.974   9.080 -0.9297 -0.0142 -0.3108
21531SOL     OW66033   6.181   5.067   4.720 -0.5069  0.0099  0.7182
21531SOL    HW166034   6.159   4.982   4.681 -1.8065  0.8090 -0.3971
21531SOL    HW266035   6.097   5.104   4.746 -0.4318  2.3804 -1.9390
21532SOL     OW66036   0.712   0.756  12.400  0.3013 -0.1674 -0.5003
21532SOL    HW166037   0.680   0.676  12.443  1.3554 -0.4405 -0.2041
21532SOL    HW266038   0.794   0.730  12.360 -0.2502  0.3061 -1.9956
21533SOL     OW66039   3.099   0.037   8.111 -0.1427  0.3750 -0.2516
21533SOL    HW166040   3.103  -0.058   8.105 -0.6701  0.2316  1.1899
21533SOL    HW266041   3.037   0.053   8.182  1.1405  1.7707  0.6037
21534SOL     OW66042   1.890   1.350   1.711 -0.5827 -0.2832  0.0742
21534SOL    HW166043   1.806   1.359   1.755 -0.1081  0.7680  0.8068
21534SOL    HW266044   1.955   1.350   1.782  0.1332  0.5770 -0.5529
21535SOL     OW66045   0.677   4.263   8.081  0.3139 -0.4120 -0.2451
21535SOL    HW166046   0.758   4.299   8.116  0.0590 -1.3369  1.3951
21535SOL    HW266047   0.697   4.171   8.063 -0.6043 -0.9166  1.1295
21536SOL     OW66048   6.647   4.319   7.950  0.0447 -0.5526  0.0977
21536SOL    HW166049   6.707   4.312   7.875  0.3409 -0.2228  0.2951
21536SOL    HW266050   6.569   4.360   7.914  0.6192  0.6772  0.1795
21537SOL     OW66051   3.013   0.916   2.496 -0.0425 -0.5088  0.4433
21537SOL    HW166052   3.081   0.924   2.429 -0.5782  1.6718  0.1034
21537SOL    HW266053   2.947   0.980   2.472 -0.2789  0.3239  3.0065
21538SOL     OW66054   2.447   5.675   5.727  0.0729  0.3827  0.1796
21538SOL    HW166055   2.456   5.586   5.695 -0.7723  0.1909  0.4230
21538SOL    HW266056   2.476   5.731   5.655  0.3378 -0.0857 -0.0756
21539SOL     OW66057   3.430   4.207   7.120  0.3012 -0.1858  0.4125
21539SOL    HW166058   3.446   4.215   7.215 -1.3969  0.7460  0.6538
21539SOL    HW266059   3.453   4.293   7.085  0.0577 -0.2421  0.1148
21540SOL     OW66060   3.152   5.420   0.661 -0.0513 -0.3023 -0.6779
21540SOL    HW166061   3.217   5.377   0.716  0.4599  0.2065 -0.8802
21540SOL    HW266062   3.107   5.348   0.616 -0.0350 -0.6821 -0.0862
21541SOL     OW66063   5.227   5.031   8.392  0.2223 -0.0985 -0.3582
21541SOL    HW166064   5.272   5.033   8.477 -1.6624  1.5282  0.6718
21541SOL    HW266065   5.154   4.971   8.405  1.0356 -1.3860 -1.4895
21542SOL     OW66066   5.272   7.418   6.849  0.0306  0.3923  1.3523
21542SOL    HW166067   5.301   7.500   6.889  1.1476  0.2254  0.8978
21542SOL    HW266068   5.340   7.396   6.786 -0.9612 -0.1499  0.4424
21543SOL     OW66069   5.813   2.916  11.468  0.0129  0.2696  0.1406
21543SOL    HW166070   5.826   2.972  11.392 -1.2319  0.6973  0.2133
21543SOL    HW266071   5.897   2.874  11.482 -0.1372 -1.0246 -2.4176
21544SOL     OW66072   3.220   4.498   1.287  0.1920  0.3400  0.2810
21544SOL    HW166073   3.194   4.431   1.350  0.9706 -0.5248 -0.3061
21544SOL    HW266074   3.146   4.559   1.286 -1.6678 -1.8109 -1.0302
21545SOL     OW66075   2.370   3.252   2.641 -0.4790  0.3971 -0.2713
21545SOL    HW166076   2.417   3.335   2.631  1.0997 -0.2892  0.8808
21545SOL    HW266077   2.440   3.188   2.653 -1.7178 -0.5793  2.3705
21546SOL     OW66078   2.603   6.603   8.441 -0.2877  0.1529 -0.1135
21546SOL    HW166079   2.618   6.676   8.381 -1.0942 -0.0824 -0.6274
21546SOL    HW266080   2.622   6.638   8.527  2.0567  0.1584 -0.5823
21547SOL     OW66081   3.726   2.608   3.565  0.1802 -0.5948 -0.3265
21547SOL    HW166082   3.667   2.533   3.558  0.7136 -0.9418 -1.1760
21547SOL    HW266083   3.813   2.572   3.550  0.9526 -0.5207  3.1297
21548SOL     OW66084   0.580   3.676   1.024 -0.4319  0.2334  0.6908
21548SOL    HW166085   0.578   3.641   1.113 -1.4232 -1.8667 -0.0934
21548SOL    HW266086   0.489   3.700   1.006 -0.0072  1.9443  0.6914
21549SOL     OW66087   4.784   2.440   8.120  0.0131  0.3270  0.2217
21549SOL    HW166088   4.856   2.472   8.065 -0.3541 -1.5676 -1.4857
21549SOL    HW266089   4.803   2.347   8.133 -1.4015  0.1069  0.9051
21550SOL     OW66090   5.680   7.839  12.020  0.4155 -0.0516  0.1546
21550SOL    HW166091   5.774   7.825  12.009  1.3921  4.1654  1.3167
21550SOL    HW266092   5.670   7.866  12.111 -2.0672 -0.8736  0.2049
21551SOL     OW66093   3.577   1.843   3.833 -0.2746  0.1801 -0.7622
21551SOL    HW166094   3.528   1.872   3.756  0.7912 -1.9810 -2.3440
21551SOL    HW266095   3.537   1.759   3.857  1.1509 -0.5187 -0.7019
21552SOL     OW66096   5.856   0.780  10.092 -0.0363 -0.5685 -0.1917
21552SOL    HW166097   5.947   0.760  10.112 -0.4614 -2.0343  0.3799
21552SOL    HW266098   5.860   0.842  10.019  1.4274  0.3423  0.6062
21553SOL     OW66099   2.386   3.974   6.484  0.2016  0.1647  0.0833
21553SOL    HW166100   2.393   4.069   6.489 -1.7529  0.3234  0.6512
21553SOL    HW266101   2.375   3.955   6.391 -0.7854  0.6233  0.1029
21554SOL     OW66102   5.358   4.481  11.680 -0.7105 -0.0129 -0.1399
21554SOL    HW166103   5.376   4.433  11.599 -1.6351 -0.7871  0.0963
21554SOL    HW266104   5.422   4.553  11.680 -0.5291 -0.1484 -1.4225
21555SOL     OW66105   1.419   3.276   8.162  0.1012  0.5583 -0.1042
21555SOL    HW166106   1.506   3.243   8.186  0.1025  1.0213  0.5823
21555SOL    HW266107   1.430   3.371   8.159 -0.1882  0.5708 -0.8473
21556SOL     OW66108   4.937   2.164  11.340  0.1040 -0.4379  0.1572
21556SOL    HW166109   5.004   2.226  11.309 -0.8585  0.7100  0.2986
21556SOL    HW266110   4.958   2.151  11.433 -0.8921  1.3651  0.6867
21557SOL     OW66111   4.355   6.703   2.647 -0.9453 -0.3940  0.9449
21557SOL    HW166112   4.293   6.775   2.634 -0.7717 -0.3319  0.4218
21557SOL    HW266113   4.406   6.700   2.566 -1.5281 -1.6561  0.5859
21558SOL     OW66114   7.210   3.016   1.450  0.1481  0.0599  0.2101
21558SOL    HW166115   7.208   3.034   1.544 -0.0764 -0.6349  0.3491
21558SOL    HW266116   7.118   3.012   1.424  0.1120  4.0422 -0.8530
21559SOL     OW66117   5.013   5.966   0.026 -0.4809  0.2912  0.0110
21559SOL    HW166118   4.948   5.962  -0.044 -1.4063  1.1820  0.8103
21559SOL    HW266119   4.963   5.982   0.105  0.4509 -1.6458  1.0642
21560SOL     OW66120   4.317   7.793   2.975  0.0458  0.1268  1.0088
21560SOL    HW166121   4.363   7.812   2.894  0.4745  0.5887  1.3590
21560SOL    HW266122   4.364   7.718   3.012 -0.4179 -0.3642  0.6207
21561SOL     OW66123   5.613   2.370   4.117 -0.1036 -0.3663  0.2062
21561SOL    HW166124   5.603   2.333   4.204 -0.6627 -1.5358 -0.3325
21561SOL    HW266125   5.544   2.330   4.065  0.4380  0.0308 -0.8680
21562SOL     OW66126   0.593   1.655   3.712  0.2148 -0.0689  0.0542
21562SOL    HW166127   0.687   1.650   3.692  0.4140  0.6565  0.7661
21562SOL    HW266128   0.578   1.583   3.773 -0.0777 -1.3079 -1.4151
21563SOL     OW66129   7.313   7.800   6.566 -0.6720  0.2782 -0.7466
21563SOL    HW166130   7.224   7.795   6.530 -0.9745 -1.3265  0.1225
21563SOL    HW266131   7.330   7.712   6.599  0.5798  1.0096  0.6847
21564SOL     OW66132   0.625   7.032   5.973 -0.1193  0.1278 -0.7396
21564SOL    HW166133   0.630   6.992   5.886  0.2745  1.1202 -1.1905
21564SOL    HW266134   0.594   6.962   6.030 -1.0157 -0.3613 -1.7931
21565SOL     OW66135   2.906   7.772   3.282 -0.1798 -0.0556  0.3989
21565SOL    HW166136   2.929   7.686   3.317 -1.4213 -0.1183  1.1237
21565SOL    HW266137   2.854   7.813   3.351  0.6519  1.4114  0.1912
21566SOL     OW66138   5.610   4.540   3.169 -0.0463  0.0549  0.3319
21566SOL    HW166139   5.621   4.549   3.264  1.7171  0.7903  0.1051
21566SOL    HW266140   5.519   4.565   3.153 -0.5693 -0.7291  1.8875
21567SOL     OW66141   1.641   6.048  11.209  0.3264 -0.2271 -0.8170
21567SOL    HW166142   1.679   5.960  11.212  0.3400 -0.2346 -1.2399
21567SOL    HW266143   1.622   6.068  11.301  0.3833 -0.6430 -0.7115
21568SOL     OW66144   7.572   3.631   8.962 -0.4565 -0.3127 -0.3528
21568SOL    HW166145   7.576   3.726   8.970 -0.2979 -0.3203 -0.3393
21568SOL    HW266146   7.540   3.601   9.047  0.0873 -0.3134 -0.1479
21569SOL     OW66147   4.289   6.727  11.190 -0.4633 -0.3825 -0.0143
21569SOL    HW166148   4.340   6.681  11.257 -0.0015  2.1123  1.5059
21569SOL    HW266149   4.354   6.781  11.144 -1.2802  0.5157 -0.1345
21570SOL     OW66150   4.162   1.865  10.006  0.1592  0.2983 -0.3610
21570SOL    HW166151   4.131   1.956  10.002 -0.2816  0.1007 -2.2396
21570SOL    HW266152   4.233   1.862   9.941  2.6214  0.1351  2.1431
21571SOL     OW66153   0.178   6.296   3.929  0.1485 -0.2599  0.4845
21571SOL    HW166154   0.253   6.255   3.884  0.2050 -0.2203  0.5420
21571SOL    HW266155   0.206   6.302   4.020  0.2513  0.1651  0.4267
21572SOL     OW66156   5.918   1.832   2.047  0.0512 -0.6110 -0.1470
21572SOL    HW166157   5.905   1.738   2.039  2.2610 -1.0097  0.1281
21572SOL    HW266158   5.960   1.843   2.132  1.3561  0.3924 -0.8860
21573SOL     OW66159   4.673   1.682   4.483  0.3687 -0.0741  0.5382
21573SOL    HW166160   4.727   1.694   4.405 -0.9922 -0.9455 -0.5793
21573SOL    HW266161   4.634   1.768   4.498 -0.3907 -0.2040 -0.5621
21574SOL     OW66162   7.097   0.981   1.939  0.5049  0.3768 -0.4681
21574SOL    HW166163   7.180   1.018   1.972  0.2501 -0.8673  1.7834
21574SOL    HW266164   7.124   0.911   1.881  0.9830  1.9030 -2.1760
21575SOL     OW66165   5.646   3.342   8.956 -0.2041  0.0660 -0.5392
21575SOL    HW166166   5.722   3.313   9.007 -1.2908  0.3983  1.3876
21575SOL    HW266167   5.581   3.273   8.969 -0.4632  0.0815 -1.6517
21576SOL     OW66168   4.287   2.682   7.148 -0.5707 -0.0512 -0.2647
21576SOL    HW166169   4.293   2.764   7.197 -1.4323  0.6087 -1.2143
21576SOL    HW266170   4.361   2.630   7.178 -1.1420  0.2559  1.8259
21577SOL     OW66171   6.974   4.210   0.288 -0.4247  0.0739 -0.4125
21577SOL    HW166172   6.947   4.118   0.292  0.3938 -0.1748 -0.5280
21577SOL    HW266173   6.923   4.246   0.214  0.8539 -0.8414 -1.7924
21578SOL     OW66174   3.481   3.299   4.858  0.5491 -0.3899 -0.0318
21578SOL    HW166175   3.401   3.252   4.836  0.8863  0.2591 -2.9436
21578SOL    HW266176   3.450   3.381   4.897 -0.2622  0.1278 -1.7012
21579SOL     OW66177   3.038   7.114   2.138 -0.5397 -0.0268 -0.0383
21579SOL    HW166178   2.952   7.093   2.101 -0.6180  0.8063 -0.3441
21579SOL    HW266179   3.056   7.203   2.108  0.0960  0.0832  0.6427
21580SOL     OW66180   7.044   3.801   2.615  0.2278  0.2267 -0.4499
21580SOL    HW166181   7.106   3.867   2.646  1.4531 -0.9319 -0.3842
21580SOL    HW266182   7.089   3.757   2.543 -0.9764  0.1133 -1.1670
21581SOL     OW66183   1.150   5.784   2.460  0.0086 -0.5667 -0.1272
21581SOL    HW166184   1.160   5.787   2.365 -1.0961  1.3380 -0.2465
21581SOL    HW266185   1.180   5.869   2.490 -0.3992 -0.8463  1.1449
21582SOL     OW66186   2.982   3.029   6.289  0.3437 -0.3201  0.3859
21582SOL    HW166187   2.904   2.974   6.286  0.4579 -0.4518 -1.1652
21582SOL    HW266188   2.970   3.092   6.217  1.1796  0.3282  0.7964
21583SOL     OW66189   5.511   0.844   4.100  0.0891 -0.2161  0.0508
21583SOL    HW166190   5.556   0.901   4.162 -2.2680  0.3466  1.3670
21583SOL    HW266191   5.484   0.902   4.028  0.5906 -0.3706 -0.2713
21584SOL     OW66192   1.331   3.065  10.718 -0.2262 -0.3217 -0.7514
21584SOL    HW166193   1.355   3.157  10.725  1.0825 -0.6324 -0.8673
21584SOL    HW266194   1.278   3.047  10.796 -0.1189  0.4084 -0.5044
21585SOL     OW66195   2.625   1.755   7.208  0.1253 -0.9147  0.1329
21585SOL    HW166196   2.538   1.793   7.212  0.0221 -1.0652 -0.6525
21585SOL    HW266197   2.656   1.774   7.120  1.9676  1.4947  1.1820
21586SOL     OW66198   4.693   4.331  10.131 -0.1317 -0.0073  0.3422
21586SOL    HW166199   4.627   4.284  10.080 -0.1499 -1.8209  1.9252
21586SOL    HW266200   4.661   4.421  10.133  0.1396  0.3140 -3.1870
21587SOL     OW66201   2.939   7.866   0.382 -0.3987  0.1236 -0.4543
21587SOL    HW166202   2.850   7.892   0.358 -0.0091  2.9847  0.7417
21587SOL    HW266203   2.934   7.843   0.475 -0.3532 -2.6189 -1.0459
21588SOL     OW66204   1.916   0.777   6.884  0.4976 -1.1574 -0.0054
21588SOL    HW166205   1.919   0.762   6.979 -2.4222 -0.9658  0.1989
21588SOL    HW266206   1.898   0.870   6.875  0.2584 -1.2649 -0.7316
21589SOL     OW66207   1.606   2.874   4.774  0.6640 -0.0194 -0.4807
21589SOL    HW166208   1.581   2.789   4.813 -0.5628  0.9727  1.0125
21589SOL    HW266209   1.526   2.907   4.735  0.8816  0.9159 -0.1520
21590SOL     OW66210   5.797   3.709   9.054 -0.5101 -0.3082 -0.7362
21590SOL    HW166211   5.756   3.777   9.001  0.6684  0.8563 -0.2195
21590SOL    HW266212   5.852   3.660   8.993  1.6247  1.6493 -0.5402
21591SOL     OW66213   4.472   2.663   2.258 -0.5969  0.0134  0.1739
21591SOL    HW166214   4.386   2.629   2.284 -0.8896  1.6802  1.5170
21591SOL    HW266215   4.460   2.757   2.250  0.9784  0.2123 -0.2129
21592SOL     OW66216   2.439   7.532   4.119  0.2371  0.6094 -0.1332
21592SOL    HW166217   2.499   7.458   4.122  0.7152  0.9174 -1.4675
21592SOL    HW266218   2.419   7.544   4.026 -0.3720  1.7130  0.1176
21593SOL     OW66219   5.017   6.118   2.202 -0.4544 -0.6770 -0.0987
21593SOL    HW166220   4.947   6.114   2.137 -0.9419 -1.1571  0.4390
21593SOL    HW266221   4.997   6.046   2.263  0.1949 -0.4715  0.3709
21594SOL     OW66222   6.912   3.037   3.900  0.0279 -0.1128 -0.4941
21594SOL    HW166223   6.854   2.971   3.939 -0.5211  1.8565  2.3758
21594SOL    HW266224   6.865   3.068   3.823 -1.3436 -0.6631  0.0809
21595SOL     OW66225   6.128   2.988   1.061  0.3061 -0.2543 -0.4780
21595SOL    HW166226   6.127   2.995   0.966  0.6123  0.0500 -0.4607
21595SOL    HW266227   6.208   3.034   1.088  1.6241 -2.5310 -0.2436
21596SOL     OW66228   0.142   0.216   9.866 -0.1272  0.2295  0.2589
21596SOL    HW166229   0.222   0.180   9.827 -0.7422 -0.9888  0.0693
21596SOL    HW266230   0.073   0.195   9.802 -0.6296  1.1422  0.4811
21597SOL     OW66231   6.988   1.850   1.278  0.7759 -0.1914  0.2803
21597SOL    HW166232   7.017   1.941   1.272  0.1932  0.0357  0.8951
21597SOL    HW266233   7.064   1.800   1.247  1.4700  0.4480  0.9085
21598SOL     OW66234   7.378   7.955  10.157 -0.1528  0.0561  0.1946
21598SOL    HW166235   7.360   7.987  10.245 -1.4041  1.3700 -0.5001
21598SOL    HW266236   7.334   7.871  10.153  0.7132 -0.4758  1.0964
21599SOL     OW66237   1.278   4.320   7.105  0.3332  0.4899  0.1027
21599SOL    HW166238   1.367   4.294   7.082  1.0059  2.0474  0.7917
21599SOL    HW266239   1.290   4.394   7.165 -1.4242  0.9613 -0.0833
21600SOL     OW66240   2.817   2.815   7.214  0.3184 -0.3100  0.2877
21600SOL    HW166241   2.893   2.785   7.164  0.0153  0.8301 -0.8902
21600SOL    HW266242   2.769   2.872   7.154 -0.8016 -0.0008  1.4314
21601SOL     OW66243   6.694   3.499   0.560  0.1396  0.3444  0.1259
21601SOL    HW166244   6.648   3.445   0.625 -2.5680  0.9061 -1.2041
21601SOL    HW266245   6.714   3.438   0.489  0.4291  0.3667  0.1833
21602SOL     OW66246   7.142   2.417  11.655 -0.2952 -0.2787 -0.8932
21602SOL    HW166247   7.136   2.506  11.622 -4.5148  0.3915  1.0365
21602SOL    HW266248   7.062   2.374  11.625 -1.4465 -1.4242  3.1671
21603SOL     OW66249   2.575   0.014  10.648  0.3287  0.3429 -0.5727
21603SOL    HW166250   2.651  -0.035  10.678  0.6495  0.4958 -1.1229
21603SOL    HW266251   2.500  -0.028  10.690  0.7238  0.2482  0.0441
21604SOL     OW66252   2.057   2.154   8.236  0.0836  0.4030 -0.4680
21604SOL    HW166253   2.057   2.072   8.186  3.3266 -1.8410  2.7333
21604SOL    HW266254   1.967   2.164   8.267 -0.5723 -1.4807 -1.6314
21605SOL     OW66255   0.905   7.621   9.297  0.4014  0.0510  0.3880
21605SOL    HW166256   0.925   7.712   9.276  1.0119 -0.4723 -1.4683
21605SOL    HW266257   0.828   7.626   9.354  0.2694  1.7072  0.1148
21606SOL     OW66258   5.653   0.123   2.898  0.1894 -0.3064  0.4137
21606SOL    HW166259   5.683   0.059   2.962  1.3150  1.3863  1.6834
21606SOL    HW266260   5.727   0.182   2.887 -1.4391  1.9960  0.9483
21607SOL     OW66261   0.130   6.830   4.027  0.8463  0.3225  0.1303
21607SOL    HW166262   0.181   6.804   3.951  1.2167  0.4331  0.3380
21607SOL    HW266263   0.136   6.756   4.087 -0.6850 -0.3913 -0.5443
21608SOL     OW66264   0.985   0.765   8.954  0.5061  0.1272  0.4606
21608SOL    HW166265   1.063   0.791   9.003  2.1795 -0.9495 -1.4589
21608SOL    HW266266   0.969   0.839   8.894  1.0558 -0.3016 -0.2345
21609SOL     OW66267   1.220   3.166   6.304  0.0489  0.3290 -0.4883
21609SOL    HW166268   1.290   3.102   6.314 -0.5702 -0.4416 -0.9804
21609SOL    HW266269   1.161   3.128   6.240 -1.4300  0.4214  0.7593
21610SOL     OW66270   3.069   6.250   0.883  0.3092  0.7502  0.4177
21610SOL    HW166271   3.084   6.163   0.920 -0.2576  0.0471 -0.9294
21610SOL    HW266272   3.052   6.305   0.959 -0.8746 -0.6416  1.2314
21611SOL     OW66273   5.439   3.123   0.841  0.1002  0.0122 -0.0166
21611SOL    HW166274   5.518   3.102   0.792  1.4782  0.9841  1.6811
21611SOL    HW266275   5.381   3.049   0.825  1.4182 -0.8241 -1.1579
21612SOL     OW66276   2.561   3.801  11.038 -0.1706 -0.5303  0.0966
21612SOL    HW166277   2.610   3.723  11.067  1.1089  0.4944  0.8046
21612SOL    HW266278   2.506   3.823  11.113  0.5065  0.0516  0.4288
21613SOL     OW66279   4.978   7.400   3.972  0.7695 -0.0937 -0.3496
21613SOL    HW166280   4.887   7.429   3.979 -0.1166 -2.8581  1.4442
21613SOL    HW266281   5.004   7.382   4.063  2.6915 -0.5214 -0.9418
21614SOL     OW66282   2.766   3.059   9.378 -0.1434 -0.9362  0.1056
21614SOL    HW166283   2.789   3.142   9.419  0.0214 -0.5516 -0.7258
21614SOL    HW266284   2.705   3.083   9.307 -1.5999 -1.7322  1.0359
21615SOL     OW66285   2.173   0.222  11.305 -0.3515 -0.2017  0.2434
21615SOL    HW166286   2.220   0.284  11.248  0.1408 -0.5623  0.2474
21615SOL    HW266287   2.207   0.136  11.280  0.1783 -0.3382  1.3462
21616SOL     OW66288   1.158   5.664   6.752  0.1743 -0.9818  0.4183
21616SOL    HW166289   1.208   5.743   6.729  0.8162 -1.3161  0.6290
21616SOL    HW266290   1.068   5.694   6.759  0.1435 -0.6029 -1.2002
21617SOL     OW66291   3.606   5.262   4.968  0.4156  0.2947  0.1840
21617SOL    HW166292   3.653   5.190   5.008 -0.5782  0.6841  2.1630
21617SOL    HW266293   3.642   5.340   5.011 -1.2734  0.6598  1.0076
21618SOL     OW66294   7.156   3.240   0.682 -0.4961  0.3749 -0.7464
21618SOL    HW166295   7.209   3.310   0.643 -0.5774  0.3450 -0.9110
21618SOL    HW266296   7.071   3.281   0.697 -0.3950  0.4541 -0.3807
21619SOL     OW66297   7.167   4.209  11.551 -0.3388  0.1182 -0.2098
21619SOL    HW166298   7.095   4.175  11.498 -1.4152  0.2286  1.1567
21619SOL    HW266299   7.130   4.220  11.638  0.9576  1.4795  0.2002
21620SOL     OW66300   4.483   0.392   8.103 -0.4948  0.1069 -0.4629
21620SOL    HW166301   4.501   0.472   8.151 -1.7486  0.8061 -1.1151
21620SOL    HW266302   4.500   0.322   8.166  1.5040  0.8008 -0.1504
21621SOL     OW66303   2.279   5.564   3.795  0.5338 -0.2065 -0.0351
21621SOL    HW166304   2.213   5.509   3.752 -0.5136  0.5786  0.5270
21621SOL    HW266305   2.337   5.591   3.724  0.5428 -1.2897 -0.4672
21622SOL     OW66306   0.852   5.927   3.613  0.2676 -0.0647  0.4577
21622SOL    HW166307   0.831   6.018   3.596  0.5063 -0.2150 -0.6993
21622SOL    HW266308   0.891   5.895   3.532  4.4325 -0.0024  2.1784
21623SOL     OW66309   5.411   1.783   0.697  0.2357 -0.2507  0.5582
21623SOL    HW166310   5.448   1.793   0.786  3.5540  1.0873 -0.7871
21623SOL    HW266311   5.487   1.793   0.639 -1.9663  0.0227 -2.5067
21624SOL     OW66312   1.962   7.264  12.338  0.0779  0.1681 -0.0158
21624SOL    HW166313   2.054   7.289  12.322 -0.4426  3.6972  1.5449
21624SOL    HW266314   1.911   7.338  12.305 -2.4763 -2.3490 -2.2880
21625SOL     OW66315   7.394   6.135   3.943  0.6800  0.0545  0.9739
21625SOL    HW166316   7.347   6.137   4.027  2.0558  0.7095  1.7675
21625SOL    HW266317   7.355   6.206   3.892 -0.4816 -0.6430  0.8587
21626SOL     OW66318   1.802   6.414   2.666  0.3552 -0.4271  0.4060
21626SOL    HW166319   1.822   6.322   2.680 -0.3113 -0.4292  1.5557
21626SOL    HW266320   1.864   6.444   2.600  1.9713 -1.1749  1.5388
21627SOL     OW66321   3.165   6.392   4.298 -0.0179 -0.5155  0.4093
21627SOL    HW166322   3.113   6.364   4.223  0.5341 -0.9514  0.1787
21627SOL    HW266323   3.125   6.349   4.373 -0.5592 -0.0966  0.3654
21628SOL     OW66324   6.717   2.176   3.670 -0.3953 -0.3102 -0.2909
21628SOL    HW166325   6.800   2.150   3.631 -1.4681 -1.0647 -2.1764
21628SOL    HW266326   6.740   2.198   3.761  2.3401  2.2386 -1.4298
21629SOL     OW66327   1.982   2.575   5.249 -0.4418 -0.1148 -0.4038
21629SOL    HW166328   2.002   2.653   5.197 -1.4058 -0.5569 -1.4865
21629SOL    HW266329   2.052   2.513   5.228 -0.2096  0.1091 -0.2943
21630SOL     OW66330   4.206   7.332   1.750  0.3761 -0.0017  0.1352
21630SOL    HW166331   4.126   7.323   1.802 -0.2553  0.1902 -0.7812
21630SOL    HW266332   4.272   7.284   1.800  0.0505  1.0473  1.6341
21631SOL     OW66333   2.195   1.381   0.648 -0.3792  0.0805  0.4142
21631SOL    HW166334   2.099   1.374   0.651 -0.4215 -0.5597 -1.2462
21631SOL    HW266335   2.212   1.473   0.630 -0.7001  0.0727  0.0652
21632SOL     OW66336   0.655   2.492   3.559  0.0001 -0.1048 -0.1022
21632SOL    HW166337   0.683   2.445   3.637  0.4896 -0.4197 -0.4664
21632SOL    HW266338   0.733   2.498   3.505 -0.2916  0.2791 -0.4840
21633SOL     OW66339   5.024   0.875  10.163 -0.4685  0.2914 -0.5177
21633SOL    HW166340   5.017   0.960  10.119  0.8966 -0.9975 -3.4509
21633SOL    HW266341   5.117   0.868  10.186  0.3043 -1.8383 -3.7081
21634SOL     OW66342   6.901   2.386   5.196  0.1223 -0.1325 -0.2960
21634SOL    HW166343   6.860   2.470   5.220 -0.3191 -0.6007  0.6585
21634SOL    HW266344   6.987   2.389   5.238 -0.2927 -0.5724  0.6012
21635SOL     OW66345   0.889   3.417   1.748 -0.5157  0.1833  0.3103
21635SOL    HW166346   0.967   3.365   1.764 -0.6151  0.0180  0.2590
21635SOL    HW266347   0.911   3.472   1.672  0.2688  1.5989  1.5067
21636SOL     OW66348   1.623   0.236   4.387 -0.1574  0.0708  0.6202
21636SOL    HW166349   1.634   0.288   4.307 -0.5124  0.5045  0.8457
21636SOL    HW266350   1.706   0.191   4.398  0.3307  0.9533  0.6639
21637SOL     OW66351   4.879   5.712   1.818  0.4127 -0.9427 -0.0132
21637SOL    HW166352   4.934   5.780   1.782 -0.9991  0.7428  0.8566
21637SOL    HW266353   4.939   5.655   1.866  1.8034 -1.1915 -1.9501
21638SOL     OW66354   0.981   6.299   6.648 -0.6336 -0.2131 -0.0794
21638SOL    HW166355   0.914   6.264   6.707 -1.0043 -0.2259 -0.5022
21638SOL    HW266356   1.057   6.314   6.705 -1.1646  0.3173  0.5130
21639SOL     OW66357   2.161   2.192   0.491  0.1597  0.2454 -0.4942
21639SOL    HW166358   2.216   2.124   0.451  1.2479  2.0240 -2.2457
21639SOL    HW266359   2.075   2.151   0.501  0.7302 -1.3381 -1.6464
21640SOL     OW66360   1.761   6.937   0.167  0.3077  0.7014 -0.1772
21640SOL    HW166361   1.799   6.917   0.081 -0.3557  2.8202 -1.0212
21640SOL    HW266362   1.678   6.980   0.148 -0.4172  0.1875  1.5773
21641SOL     OW66363   0.623   6.515   1.667  0.0041  0.2104 -0.1919
21641SOL    HW166364   0.715   6.528   1.692 -0.0793  1.5373 -0.5203
21641SOL    HW266365   0.627   6.458   1.591  0.7315  2.1007 -1.6363
21642SOL     OW66366   6.955   1.452   8.264 -0.2456  0.0806 -0.1871
21642SOL    HW166367   6.994   1.539   8.277 -1.1117  0.2154  1.8900
21642SOL    HW266368   6.963   1.410   8.350  1.2975 -2.4211 -1.4490
21643SOL     OW66369   0.223   5.357   7.848 -0.4340 -0.0897 -0.0280
21643SOL    HW166370   0.245   5.284   7.790  1.2179  0.1036  0.3111
21643SOL    HW266371   0.212   5.318   7.934  0.4772  0.0459  0.1588
21644SOL     OW66372   6.180   7.255   8.276 -0.2124  0.0177 -0.6866
21644SOL    HW166373   6.095   7.260   8.321  0.9556 -2.2747  2.0850
21644SOL    HW266374   6.170   7.181   8.216 -0.5446  0.6021 -1.3713
21645SOL     OW66375   6.097   0.637   0.209 -0.3111 -0.1312  0.6711
21645SOL    HW166376   6.054   0.559   0.173 -0.4531  0.1107  0.3093
21645SOL    HW266377   6.122   0.688   0.132  0.7095 -0.3139  0.8736
21646SOL     OW66378   3.365   2.772   1.376 -0.0467  0.4259 -0.3384
21646SOL    HW166379   3.305   2.704   1.406 -0.6431  1.4035  0.7694
21646SOL    HW266380   3.451   2.731   1.377 -0.3862 -0.2861  0.4021
21647SOL     OW66381   5.699   3.470   3.366 -0.2170  0.0506  0.5387
21647SOL    HW166382   5.697   3.546   3.424  0.3309  0.6905 -0.2541
21647SOL    HW266383   5.616   3.474   3.319  0.0901  0.5624  0.0195
21648SOL     OW66384   2.376   3.240  11.049  0.3941 -0.2504 -0.8879
21648SOL    HW166385   2.318   3.222  11.123 -0.9741 -1.7433 -2.2317
21648SOL    HW266386   2.316   3.260  10.976  1.6119 -0.3488 -1.9483
21649SOL     OW66387   5.894   1.206  11.155 -0.3708 -0.0374 -0.2242
21649SOL    HW166388   5.890   1.111  11.146  0.6539 -0.2891  1.5352
21649SOL    HW266389   5.952   1.221  11.230  0.1873  2.0098 -0.9890
21650SOL     OW66390   7.452   0.698   9.154 -0.4815  0.2672 -0.2503
21650SOL    HW166391   7.480   0.770   9.097 -0.6590 -0.3236 -1.0962
21650SOL    HW266392   7.533   0.655   9.179 -0.4028  0.5338 -0.0349
21651SOL     OW66393   6.124   3.581   6.833  0.2403 -0.4890  0.4229
21651SOL    HW166394   6.204   3.608   6.788 -1.5892  0.9747 -2.2677
21651SOL    HW266395   6.096   3.659   6.881 -1.0477  0.0194 -1.0764
21652SOL     OW66396   0.953   2.646   9.688 -0.1666 -0.4606  0.6693
21652SOL    HW166397   0.943   2.577   9.623 -1.1914  0.7243 -0.5062
21652SOL    HW266398   0.909   2.722   9.649  0.6344  0.7657  2.0408
21653SOL     OW66399   1.691   5.033  11.156  0.2307 -0.0679 -0.1629
21653SOL    HW166400   1.655   5.007  11.240  1.0905  1.7380  0.8276
21653SOL    HW266401   1.615   5.063  11.106 -0.0403  1.1302  0.8964
21654SOL     OW66402   5.935   6.543  11.891 -0.0013 -0.5010 -0.5478
21654SOL    HW166403   5.867   6.564  11.826 -0.7365 -0.2990  0.2740
21654SOL    HW266404   5.940   6.620  11.946  0.0535 -0.9801  0.1253
21655SOL     OW66405   2.973   2.113   7.760  0.0841  0.1980 -0.4554
21655SOL    HW166406   3.065   2.140   7.765  1.1358 -3.2391  2.4106
21655SOL    HW266407   2.934   2.149   7.839  0.3173 -2.3015  0.8878
21656SOL     OW66408   6.513   5.341  10.874 -0.0818  0.5119 -0.0565
21656SOL    HW166409   6.480   5.409  10.816 -1.6526 -0.5841 -0.5244
21656SOL    HW266410   6.485   5.259  10.833  1.0183 -0.3889  0.9148
21657SOL     OW66411   2.254   1.517   8.576  0.3468 -0.3228  0.0362
21657SOL    HW166412   2.182   1.551   8.523 -0.6903  1.2638  2.3142
21657SOL    HW266413   2.230   1.425   8.593  0.3989 -0.6831 -1.6219
21658SOL     OW66414   0.286   1.824  10.592  0.4076 -0.3461  0.1744
21658SOL    HW166415   0.257   1.874  10.668 -0.3829 -0.9755  0.3026
21658SOL    HW266416   0.314   1.740  10.628 -0.8371 -0.9980 -0.2923
21659SOL     OW66417   0.552   7.358  12.438 -0.2503  0.1125 -0.2140
21659SOL    HW166418   0.503   7.346  12.519  0.2128 -1.7108 -0.1685
21659SOL    HW266419   0.531   7.448  12.411 -0.8612  0.5600  1.6006
21660SOL     OW66420   2.849   2.652   9.524  0.0043 -0.2250 -0.5110
21660SOL    HW166421   2.828   2.617   9.611  0.8068  1.7874  0.5749
21660SOL    HW266422   2.811   2.740   9.524  0.7230  0.1184 -1.9022
21661SOL     OW66423   2.183   0.835   7.240 -0.1195 -0.3509  0.1122
21661SOL    HW166424   2.260   0.798   7.283 -0.3148  2.0535  2.8138
21661SOL    HW266425   2.219   0.889   7.170  0.6630  0.2129  0.9183
21662SOL     OW66426   5.507   4.455   7.357 -0.2639 -0.4669  0.0072
21662SOL    HW166427   5.581   4.439   7.416 -0.3359 -1.3232 -0.1165
21662SOL    HW266428   5.452   4.377   7.366 -1.9797  0.8118  1.2734
21663SOL     OW66429   1.133   2.100   8.221 -0.3493  0.2105  0.2420
21663SOL    HW166430   1.116   2.068   8.133  1.6827  0.4291 -0.2870
21663SOL    HW266431   1.067   2.057   8.276  1.0875 -3.5385 -0.6757
21664SOL     OW66432   6.886   5.024   6.927 -0.1183 -0.0727 -0.0027
21664SOL    HW166433   6.962   4.972   6.953 -1.1522 -1.8327 -0.3469
21664SOL    HW266434   6.877   5.009   6.833 -1.8017 -1.2341  0.2938
21665SOL     OW66435   6.614   7.285  10.145 -0.5328  0.1072  0.4015
21665SOL    HW166436   6.624   7.191  10.157 -0.9923 -0.1220 -0.8747
21665SOL    HW266437   6.677   7.307  10.077 -0.9940  0.5826  0.1257
21666SOL     OW66438   3.689   7.874   7.934 -0.1709  0.2698 -0.4080
21666SOL    HW166439   3.755   7.834   7.877 -0.9306  0.5204 -1.5017
21666SOL    HW266440   3.726   7.868   8.022  0.8149 -0.5925 -0.8593
21667SOL     OW66441   1.880   7.096   1.850  0.6683 -0.1528  0.5071
21667SOL    HW166442   1.844   7.037   1.917 -0.8300 -0.8856 -0.8705
21667SOL    HW266443   1.804   7.124   1.799  1.7679  0.1727 -1.0474
21668SOL     OW66444   1.628   4.479   9.095 -0.4274 -0.4940 -0.0145
21668SOL    HW166445   1.658   4.427   9.169  1.7469  1.9757  0.9967
21668SOL    HW266446   1.688   4.457   9.024 -0.6698 -0.7076 -0.1547
21669SOL     OW66447   1.537   5.609   3.847 -0.2609 -0.3853 -0.2151
21669SOL    HW166448   1.500   5.610   3.935 -0.1806  0.8060 -0.1812
21669SOL    HW266449   1.590   5.529   3.844  0.4102 -0.0109  1.0980
21670SOL     OW66450   6.976   7.933  11.553  0.2986 -0.2406  0.2153
21670SOL    HW166451   6.943   7.927  11.643  0.5436 -1.9194  0.2296
21670SOL    HW266452   7.003   8.024  11.543 -0.1375  0.0757  1.6936
21671SOL     OW66453   4.505   7.071   8.767 -0.2507  0.2684  0.3488
21671SOL    HW166454   4.411   7.067   8.782 -0.2192  2.4907  1.5809
21671SOL    HW266455   4.526   7.165   8.771  2.2464 -0.2674  1.8957
21672SOL     OW66456   0.258   3.698   0.368  0.1834  0.4594  0.3576
21672SOL    HW166457   0.267   3.657   0.282 -1.1842 -0.7888  0.7594
21672SOL    HW266458   0.327   3.658   0.421  2.3922  2.7376 -0.6169
21673SOL     OW66459   0.980   6.955   3.879  0.2190 -0.0448  0.3308
21673SOL    HW166460   0.931   7.036   3.864 -0.6921 -0.6871 -0.2492
21673SOL    HW266461   0.965   6.935   3.972  1.1397  0.8705  0.7038
21674SOL     OW66462   2.672   2.665   9.003 -1.0363 -0.5407 -0.3468
21674SOL    HW166463   2.692   2.745   8.953  2.6637 -1.5861 -0.8200
21674SOL    HW266464   2.686   2.690   9.094 -0.1991 -0.5165 -0.4695
21675SOL     OW66465   0.075   3.857  10.472  0.0531 -0.2197  0.0647
21675SOL    HW166466   0.158   3.811  10.467 -0.3287 -0.8557 -0.5758
21675SOL    HW266467   0.020   3.802  10.527 -0.2352 -0.2718 -0.2693
21676SOL     OW66468   2.042   6.963   6.986  0.5252 -0.1897  0.3448
21676SOL    HW166469   2.089   6.942   6.905  1.4073 -0.3639  0.8955
21676SOL    HW266470   1.974   7.025   6.959 -0.0542 -1.2541 -0.7615
21677SOL     OW66471   3.834   5.353  11.286  0.5691  0.2599 -0.2816
21677SOL    HW166472   3.752   5.367  11.333  0.4125  0.4445 -0.6092
21677SOL    HW266473   3.820   5.274  11.235  0.3165  0.7273 -0.9460
21678SOL     OW66474   1.572   7.495   1.276 -0.5465 -0.1916 -0.0246
21678SOL    HW166475   1.554   7.442   1.198 -0.0629  1.2751 -1.1857
21678SOL    HW266476   1.525   7.450   1.347 -0.0882 -2.1867 -0.9190
21679SOL     OW66477   2.862   5.352   0.772 -0.2815 -0.8841  0.0457
21679SOL    HW166478   2.781   5.348   0.721 -0.9495 -0.0632  1.0139
21679SOL    HW266479   2.919   5.287   0.731 -1.2843 -1.2009 -0.8931
21680SOL     OW66480   0.470   3.699  11.321  0.1538 -0.2731  0.2836
21680SOL    HW166481   0.386   3.698  11.367  0.3769 -0.4873  0.6882
21680SOL    HW266482   0.453   3.750  11.242 -0.6101 -1.1226 -0.1202
21681SOL     OW66483   4.557   0.704   9.494  0.8921 -0.1446 -0.7662
21681SOL    HW166484   4.622   0.771   9.475  0.1934  0.4110 -1.2796
21681SOL    HW266485   4.476   0.737   9.454 -0.2889  0.3191  1.7802
21682SOL     OW66486   0.123   3.703   7.674 -0.2834  0.1489 -0.2949
21682SOL    HW166487   0.129   3.757   7.753  0.6929 -0.1013 -0.1817
21682SOL    HW266488   0.127   3.613   7.705  0.9050  0.0549 -0.6630
21683SOL     OW66489   4.396   4.887   5.154  0.3679  0.2924 -0.1510
21683SOL    HW166490   4.302   4.873   5.152  0.7573 -2.9444 -0.1064
21683SOL    HW266491   4.410   4.946   5.228 -1.5317 -0.1495  0.6041
21684SOL     OW66492   5.290   7.656   0.458  0.4146 -0.6777  0.0719
21684SOL    HW166493   5.272   7.713   0.382  1.1495 -0.6085 -0.0608
21684SOL    HW266494   5.211   7.663   0.512  0.7175  0.9864  0.3747
21685SOL     OW66495   2.075   6.929   0.918 -0.1975  0.0941 -0.3056
21685SOL    HW166496   2.025   6.993   0.968  0.0869  0.6829 -0.7587
21685SOL    HW266497   2.041   6.845   0.946 -0.2923  0.4242  0.6122
21686SOL     OW66498   4.975   6.512   8.784  0.1089 -0.3041  0.4005
21686SOL    HW166499   4.939   6.521   8.696  1.1155 -2.2289 -0.2603
21686SOL    HW266500   5.023   6.594   8.798  0.4526 -0.2164 -1.0957
21687SOL     OW66501   0.526   1.932  11.548  0.1393  0.0352  0.1281
21687SOL    HW166502   0.481   1.912  11.466  1.0593  0.5722 -0.5385
21687SOL    HW266503   0.566   1.850  11.574  1.0782  0.1844 -0.7749
21688SOL     OW66504   7.296   4.511   2.692 -0.4229 -0.0429  0.0613
21688SOL    HW166505   7.291   4.416   2.685  0.4031 -0.0382 -0.8106
21688SOL    HW266506   7.384   4.529   2.724 -0.0349  0.4626 -1.2106
21689SOL     OW66507   3.810   1.701   7.258  0.1239  0.5388  0.8103
21689SOL    HW166508   3.890   1.743   7.224  0.7050  0.4326  1.9993
21689SOL    HW266509   3.799   1.738   7.346 -1.1839  0.5941  0.6403
21690SOL     OW66510   0.148   7.957   7.390  0.5431 -0.4543  0.1474
21690SOL    HW166511   0.207   8.018   7.347 -0.3876  1.7263  1.7764
21690SOL    HW266512   0.183   7.948   7.479 -0.3525 -0.8806  0.4731
21691SOL     OW66513   6.713   7.891   2.466  0.3035  0.1693 -0.5465
21691SOL    HW166514   6.688   7.804   2.434  0.6143  0.9424 -3.1671
21691SOL    HW266515   6.630   7.937   2.476  0.1149 -0.4914  1.1839
21692SOL     OW66516   3.867   4.547   7.447  0.5683 -0.0853 -0.2258
21692SOL    HW166517   3.882   4.499   7.529  0.5078  0.5186  0.1489
21692SOL    HW266518   3.942   4.525   7.392  1.3084  0.5282  0.5009
21693SOL     OW66519   7.186   1.995  10.287  0.1698 -0.0691 -0.2535
21693SOL    HW166520   7.222   2.057  10.224  2.3834 -1.7881 -0.8499
21693SOL    HW266521   7.167   2.048  10.365  1.4089  1.4509 -0.9236
21694SOL     OW66522   0.200   6.618   5.702  0.6059  0.1778  0.4530
21694SOL    HW166523   0.140   6.616   5.776 -0.4267 -0.8104 -0.3657
21694SOL    HW266524   0.153   6.571   5.633  2.7468 -1.5668  0.0976
21695SOL     OW66525   4.405   3.322   4.833  0.4455  0.4508  0.0153
21695SOL    HW166526   4.383   3.236   4.870  0.0610  0.0382 -1.1287
21695SOL    HW266527   4.500   3.323   4.830  0.4862  0.4862  0.9823
21696SOL     OW66528   1.126   2.250   3.175 -0.2110  1.0236 -0.2209
21696SOL    HW166529   1.109   2.159   3.151  1.6824  0.6814 -0.3836
21696SOL    HW266530   1.126   2.249   3.271  0.5988  0.6860 -0.2209
21697SOL     OW66531   5.783   5.198   1.071 -0.3283 -0.2820 -0.0604
21697SOL    HW166532   5.845   5.125   1.078 -1.2588 -0.9430  1.8043
21697SOL    HW266533   5.818   5.252   1.000  2.5329 -0.4895  1.0809
21698SOL     OW66534   4.757   1.622   9.353 -0.1422 -0.1882  0.0198
21698SOL    HW166535   4.762   1.528   9.368  0.1769 -0.2754 -0.6257
21698SOL    HW266536   4.710   1.656   9.429  1.7234 -0.5676  1.3964
21699SOL     OW66537   7.000   7.753   9.980 -0.6997  0.0541  0.6283
21699SOL    HW166538   7.008   7.753   9.884 -0.3343  0.1805  0.6578
21699SOL    HW266539   6.980   7.844  10.002  0.3310  0.2695  0.7550
21700SOL     OW66540   6.925   4.191   6.101 -0.4383  0.2405  0.1535
21700SOL    HW166541   6.976   4.249   6.156 -1.4293  1.7711 -0.4770
21700SOL    HW266542   6.871   4.249   6.047  1.1235 -1.0994 -3.1260
21701SOL     OW66543   0.398   6.534  12.287 -0.0933 -0.1515  0.2917
21701SOL    HW166544   0.336   6.552  12.217 -1.5145  0.8413  1.7482
21701SOL    HW266545   0.395   6.612  12.343  1.1254 -0.8386  1.3676
21702SOL     OW66546   7.009   5.425   9.308  0.1266  0.0056  0.1154
21702SOL    HW166547   6.964   5.364   9.250  1.8616  0.7414 -2.1393
21702SOL    HW266548   7.089   5.380   9.335  0.6772  0.6893 -0.3381
21703SOL     OW66549   5.812   5.268   5.379  0.2253  0.4052  0.0175
21703SOL    HW166550   5.888   5.228   5.422 -0.6896  0.5241  1.7897
21703SOL    HW266551   5.810   5.226   5.292  2.7405  0.9518 -0.4014
21704SOL     OW66552   4.840   0.633   8.187 -0.6897  0.8581 -0.4564
21704SOL    HW166553   4.752   0.657   8.216 -0.1446  1.3737  0.8481
21704SOL    HW266554   4.865   0.559   8.242  0.1092  1.4281 -0.0291
21705SOL     OW66555   4.513   1.515   3.882  0.2242 -0.9075  0.3990
21705SOL    HW166556   4.463   1.540   3.960  0.7974 -1.6099  1.0012
21705SOL    HW266557   4.559   1.595   3.856 -0.4927 -0.4933  0.3700
21706SOL     OW66558   5.180   3.515  11.514 -0.2005  0.3270  0.7296
21706SOL    HW166559   5.107   3.553  11.563  0.1603  1.1009  0.6739
21706SOL    HW266560   5.151   3.516  11.423 -0.5732 -0.4343  0.8264
21707SOL     OW66561   2.617   5.741   3.357  0.1990  0.3420 -0.3629
21707SOL    HW166562   2.593   5.792   3.434  1.6502  0.1041  0.2789
21707SOL    HW266563   2.535   5.702   3.327 -0.0508 -1.7109  2.6130
21708SOL     OW66564   1.427   1.245  11.087  0.3261  0.2219  0.1393
21708SOL    HW166565   1.477   1.212  11.012 -0.8850 -2.2855  0.2955
21708SOL    HW266566   1.493   1.277  11.148  1.5968 -0.8551 -0.6017
21709SOL     OW66567   0.274   7.301   4.204 -0.4477 -0.1768 -0.0334
21709SOL    HW166568   0.288   7.330   4.294  1.7494  0.6686 -0.5945
21709SOL    HW266569   0.267   7.206   4.211  5.0158 -0.8155  0.6477
21710SOL     OW66570   2.622   4.856   3.685  0.6025  0.7624  0.3271
21710SOL    HW166571   2.635   4.926   3.621  0.5851  0.6607  0.2116
21710SOL    HW266572   2.532   4.828   3.672  0.2124  1.5554  1.2189
21711SOL     OW66573   2.437   4.858   1.644  0.7201 -0.0271 -0.3742
21711SOL    HW166574   2.508   4.796   1.623  1.5042  0.3345  1.0993
21711SOL    HW266575   2.359   4.818   1.605  1.9718  0.5000 -3.7711
21712SOL     OW66576   0.540   4.744   0.172 -0.3919  0.5154  0.3317
21712SOL    HW166577   0.482   4.752   0.095  1.6704 -0.3966 -1.4245
21712SOL    HW266578   0.619   4.792   0.146 -0.3026  1.7431  2.6619
21713SOL     OW66579   0.174   0.403  12.376  0.1746  0.1138 -0.2178
21713SOL    HW166580   0.145   0.313  12.363 -0.2681  0.2517 -0.2348
21713SOL    HW266581   0.256   0.396  12.424  1.2244 -0.3665 -2.0189
21714SOL     OW66582   2.199   6.821   4.629  0.0699 -0.5246 -0.2339
21714SOL    HW166583   2.126   6.852   4.576  0.1430  0.2283  0.0880
21714SOL    HW266584   2.174   6.840   4.719  0.6860 -0.1829 -0.1249
21715SOL     OW66585   6.593   7.957   0.699  0.1213 -0.0045  0.1360
21715SOL    HW166586   6.544   8.016   0.756  0.2624  0.2898 -0.0421
21715SOL    HW266587   6.582   7.995   0.611  0.2032 -0.2502  0.0200
21716SOL     OW66588   7.577   7.231   8.617 -0.1537  0.5564 -0.6262
21716SOL    HW166589   7.508   7.214   8.682  0.1691  2.2848  0.2186
21716SOL    HW266590   7.552   7.177   8.542 -0.4318 -1.6750  0.9567
21717SOL     OW66591   7.711   2.871  10.105 -0.3397 -0.3744  0.1981
21717SOL    HW166592   7.663   2.789  10.111 -0.5094 -0.1896  1.9856
21717SOL    HW266593   7.803   2.845  10.108 -0.3995 -0.4829  1.4971
21718SOL     OW66594   4.718   1.962   7.185 -0.0955  0.4891 -0.6279
21718SOL    HW166595   4.786   1.895   7.191 -0.8763 -0.4966 -2.0575
21718SOL    HW266596   4.711   1.998   7.273  1.4301 -0.2134 -0.1906
21719SOL     OW66597   0.478   6.743   4.153  0.7988  0.0150 -0.0888
21719SOL    HW166598   0.410   6.677   4.166  0.7065  0.3406  1.2467
21719SOL    HW266599   0.503   6.769   4.242  1.8814  0.7075 -0.5773
21720SOL     OW66600   1.459   1.595   4.491 -0.3093  0.0080 -0.2579
21720SOL    HW166601   1.514   1.673   4.486  0.3734 -0.4316  0.1371
21720SOL    HW266602   1.412   1.592   4.408  1.0898 -0.1952 -1.0664
21721SOL     OW66603   2.829   1.435   4.832 -0.2022 -0.0695  0.0585
21721SOL    HW166604   2.766   1.430   4.760  1.2080 -0.0285 -1.2314
21721SOL    HW266605   2.778   1.468   4.906 -1.0633  3.2086 -1.7945
21722SOL     OW66606   0.809   4.909  11.324  0.5546  0.3000  0.6789
21722SOL    HW166607   0.897   4.917  11.361 -0.5501  0.5560  3.4821
21722SOL    HW266608   0.751   4.938  11.394 -1.8073 -0.0963 -1.0019
21723SOL     OW66609   2.985   0.516   5.427  0.1798  0.1661 -0.0531
21723SOL    HW166610   2.951   0.435   5.466  1.5346 -0.2857  0.2402
21723SOL    HW266611   3.070   0.529   5.470  1.0193  0.4912 -1.7378
21724SOL     OW66612   6.648   1.826   4.491 -0.1074  0.2069  0.0915
21724SOL    HW166613   6.569   1.846   4.440  1.0054  1.6071 -1.2040
21724SOL    HW266614   6.617   1.820   4.581 -1.6531  1.0876 -0.3246
21725SOL     OW66615   6.611   0.647   2.187 -0.0428 -0.1739 -0.1499
21725SOL    HW166616   6.562   0.597   2.252  0.6861 -0.2251  0.3714
21725SOL    HW266617   6.667   0.705   2.239  0.6114 -0.2788 -0.7310
21726SOL     OW66618   4.216   2.954   5.197  0.1259  0.4716  0.7843
21726SOL    HW166619   4.288   2.981   5.139 -1.8050 -1.2694 -2.7113
21726SOL    HW266620   4.237   2.864   5.220  0.0726  0.6501  1.5618
21727SOL     OW66621   7.367   0.670   6.221  0.4502  0.1263  0.4439
21727SOL    HW166622   7.414   0.747   6.187 -0.7713  1.5443  1.8103
21727SOL    HW266623   7.275   0.687   6.202  0.2798 -2.0178 -1.0411
21728SOL     OW66624   4.101   2.038   5.630 -0.1303  0.0531  0.6634
21728SOL    HW166625   4.010   2.060   5.607 -0.8039 -2.9015  0.1130
21728SOL    HW266626   4.116   2.084   5.712 -1.2599  2.4956 -0.3708
21729SOL     OW66627   2.041   3.287   3.592 -0.0708  0.6281  0.0869
21729SOL    HW166628   1.959   3.303   3.546 -0.2506 -1.0345 -0.2220
21729SOL    HW266629   2.097   3.361   3.567  0.1354 -0.5317 -3.5238
21730SOL     OW66630   2.993   4.686   5.642 -0.5615  0.1107  0.1669
21730SOL    HW166631   2.996   4.609   5.585  0.0334  0.9114 -0.9459
21730SOL    HW266632   2.900   4.702   5.657 -0.7821  0.2968 -1.2231
21731SOL     OW66633   2.759   2.104   5.414 -0.0187 -0.0247  0.1436
21731SOL    HW166634   2.810   2.175   5.455 -0.9854  1.5435 -1.2485
21731SOL    HW266635   2.824   2.055   5.363  0.3682  1.0678 -0.4531
21732SOL     OW66636   2.162   6.542  10.730  0.1757  0.5965  0.1289
21732SOL    HW166637   2.151   6.510  10.820 -2.3783  0.5492 -0.1190
21732SOL    HW266638   2.224   6.481  10.690  0.6816  0.1055  1.6053
21733SOL     OW66639   3.382   4.140   1.075 -0.1951 -0.0910  0.0037
21733SOL    HW166640   3.399   4.221   1.027  0.3724 -0.6096 -0.6905
21733SOL    HW266641   3.328   4.089   1.016 -0.4650 -0.2653  0.3999
21734SOL     OW66642   4.518   4.868   9.614  0.3917 -0.0965 -0.2228
21734SOL    HW166643   4.457   4.934   9.647  0.9253  0.6728 -0.7323
21734SOL    HW266644   4.604   4.897   9.646  0.5270 -1.0676  0.3358
21735SOL     OW66645   1.115   3.943   5.966  0.5506 -0.1983  0.1119
21735SOL    HW166646   1.138   3.878   6.032  0.5234 -1.5532 -1.1507
21735SOL    HW266647   1.152   3.909   5.884  0.2662  1.2267 -0.6573
21736SOL     OW66648   0.084   3.381   9.700  0.2387 -0.9236  0.1781
21736SOL    HW166649   0.040   3.455   9.742  1.2688 -1.1206  1.6898
21736SOL    HW266650   0.106   3.322   9.772  3.2168 -0.6777 -0.4036
21737SOL     OW66651   0.594   5.932  10.472  0.1786  0.0008  0.8611
21737SOL    HW166652   0.610   5.882  10.392  4.0901 -0.1215  1.4966
21737SOL    HW266653   0.565   5.868  10.536  0.6891 -0.6091  0.4868
21738SOL     OW66654   4.567   6.129   1.807 -0.2555 -0.5083 -0.0464
21738SOL    HW166655   4.515   6.076   1.747 -0.1082  1.2116 -1.8358
21738SOL    HW266656   4.516   6.132   1.887 -2.1604 -0.1951 -1.2061
21739SOL     OW66657   6.547   6.635   7.147  0.6887  0.1717 -0.1430
21739SOL    HW166658   6.565   6.560   7.204  0.0503  0.4451  0.4340
21739SOL    HW266659   6.591   6.613   7.065 -1.2518 -1.8633 -0.7552
21740SOL     OW66660   2.241   6.457   4.497 -0.2379  0.1178  0.1213
21740SOL    HW166661   2.305   6.514   4.539 -2.5234  3.2992 -0.3897
21740SOL    HW266662   2.233   6.491   4.408 -1.8028 -0.9265 -0.1872
21741SOL     OW66663   2.495   4.603   0.911  0.5798  0.3532  0.8197
21741SOL    HW166664   2.585   4.629   0.893  0.6844 -0.7166 -0.4018
21741SOL    HW266665   2.490   4.598   1.006  0.5779  4.4669  1.2110
21742SOL     OW66666   0.218   6.082  12.193 -0.1829  0.0442 -0.8410
21742SOL    HW166667   0.235   6.003  12.243 -1.2391  0.5805  0.4198
21742SOL    HW266668   0.299   6.098  12.145  1.0941 -0.1732  1.1616
21743SOL     OW66669   2.591   5.002   7.491 -0.9355  0.0902 -0.0653
21743SOL    HW166670   2.630   4.982   7.406 -0.2375  1.1837 -0.0209
21743SOL    HW266671   2.521   5.064   7.472 -0.6375  0.5040  0.1666
21744SOL     OW66672   0.410   1.387   9.952  0.0952 -0.6221 -0.3680
21744SOL    HW166673   0.330   1.426   9.987 -0.5980 -0.7300 -1.7790
21744SOL    HW266674   0.404   1.399   9.858  1.1695 -1.7053 -0.6028
21745SOL     OW66675   4.631   6.291   3.041 -0.5314 -0.0055 -0.0952
21745SOL    HW166676   4.663   6.223   3.099 -0.7464  0.4638  0.5936
21745SOL    HW266677   4.551   6.323   3.084 -1.1326 -0.1843 -1.0492
21746SOL     OW66678   3.870   0.323   1.710 -1.1639 -0.3878  0.5096
21746SOL    HW166679   3.837   0.371   1.786 -1.2433  1.5422 -0.6875
21746SOL    HW266680   3.796   0.323   1.648 -1.2502 -2.3109  0.5401
21747SOL     OW66681   7.449   5.624   1.100 -0.0152 -0.5184 -0.7266
21747SOL    HW166682   7.370   5.589   1.059 -1.4763  0.8388  0.8240
21747SOL    HW266683   7.472   5.560   1.168 -0.2450 -0.5163 -0.6475
21748SOL     OW66684   7.817   1.541   7.657 -0.2689 -0.4397  0.4490
21748SOL    HW166685   7.763   1.468   7.687  0.4179 -0.6224  1.2513
21748SOL    HW266686   7.861   1.508   7.579  1.6770 -1.6517  1.9807
21749SOL     OW66687   1.626   4.820   9.306 -0.9673  0.2856  0.1058
21749SOL    HW166688   1.559   4.851   9.245 -0.3821 -1.0568 -1.2961
21749SOL    HW266689   1.709   4.839   9.261 -0.4349  0.8758  1.2962
21750SOL     OW66690   6.234   2.932   2.941 -0.4288 -0.1462  1.0844
21750SOL    HW166691   6.147   2.967   2.917 -0.2363  1.7451  2.8821
21750SOL    HW266692   6.276   3.003   2.989  2.3706 -0.8142 -0.1656
21751SOL     OW66693   5.044   6.894   8.496 -0.2961  0.0654  0.0253
21751SOL    HW166694   4.960   6.940   8.504 -0.0248  0.6568 -0.5146
21751SOL    HW266695   5.036   6.843   8.416 -0.9470 -1.5987  1.0877
21752SOL     OW66696   5.533   2.816  10.638 -0.4265  0.4721  0.1224
21752SOL    HW166697   5.625   2.810  10.663 -0.5041  1.4272  0.7102
21752SOL    HW266698   5.491   2.740  10.678  0.5301 -1.4459 -2.2989
21753SOL     OW66699   0.637   7.930   5.780 -0.3282  0.1772  0.4161
21753SOL    HW166700   0.597   7.923   5.693  0.3403 -1.1286  0.1978
21753SOL    HW266701   0.652   7.840   5.807  0.9667  0.5972  1.1863
21754SOL     OW66702   5.751   7.050   8.493 -0.4813 -0.1841 -0.6078
21754SOL    HW166703   5.784   7.120   8.548 -1.9476  1.3433 -1.5846
21754SOL    HW266704   5.696   7.094   8.428 -1.9367 -2.2790 -0.8953
21755SOL     OW66705   0.917   0.667   3.314  0.4283  0.5347 -0.4064
21755SOL    HW166706   0.865   0.666   3.234  0.8691 -0.8335 -0.6892
21755SOL    HW266707   0.883   0.596   3.367  0.6255  0.9687  0.3241
21756SOL     OW66708   4.759   2.633   6.073 -0.3204 -0.8724 -0.1418
21756SOL    HW166709   4.809   2.585   6.007 -0.2224  1.1082 -1.6120
21756SOL    HW266710   4.668   2.629   6.041 -0.4452 -0.8402  0.2104
21757SOL     OW66711   2.038   1.569   4.456 -0.4150 -0.5066  0.0022
21757SOL    HW166712   2.108   1.513   4.424  1.4155  2.2267 -1.1170
21757SOL    HW266713   2.078   1.656   4.466 -3.1474  0.7526  1.2980
21758SOL     OW66714   1.097   0.801   2.751 -0.0925 -0.0445  0.4164
21758SOL    HW166715   1.089   0.776   2.843 -4.5119  2.4545  0.9730
21758SOL    HW266716   1.099   0.897   2.752  0.0532  0.0575 -2.1357
21759SOL     OW66717   3.507   3.213   9.604 -0.1854  0.3580  0.3739
21759SOL    HW166718   3.564   3.239   9.676 -1.2277  1.5223  0.8149
21759SOL    HW266719   3.460   3.137   9.637 -0.7221  0.9386  0.9867
21760SOL     OW66720   5.445   7.247  10.880 -0.4685 -0.0606  0.0754
21760SOL    HW166721   5.407   7.162  10.858 -1.5700  0.6399 -0.7952
21760SOL    HW266722   5.386   7.311  10.841  0.7691  1.1048  0.0381
21761SOL     OW66723   6.819   1.488  11.800  0.2638  0.3392 -0.4378
21761SOL    HW166724   6.879   1.518  11.867  2.2135 -1.0453 -1.4446
21761SOL    HW266725   6.814   1.393  11.813 -2.9744  0.5328  0.5406
21762SOL     OW66726   1.922   7.409   9.541 -0.2413  0.3739 -0.2616
21762SOL    HW166727   1.964   7.427   9.626  0.1815  0.8765 -0.5752
21762SOL    HW266728   1.980   7.448   9.477 -0.0469 -0.8531 -0.8652
21763SOL     OW66729   0.200   0.218  10.129 -0.8080  0.5215 -0.0409
21763SOL    HW166730   0.154   0.296  10.161  0.3036  1.6726 -1.1430
21763SOL    HW266731   0.191   0.222  10.034  0.0618 -0.1800 -0.1661
21764SOL     OW66732   0.511   4.096   9.775 -0.1807  0.4327 -0.1471
21764SOL    HW166733   0.436   4.146   9.806  0.2235  0.2979  1.1044
21764SOL    HW266734   0.473   4.020   9.730 -0.7945  1.5941 -1.6949
21765SOL     OW66735   2.948   5.781   7.618  0.3902 -0.8098  0.2266
21765SOL    HW166736   2.893   5.857   7.600 -0.3256 -1.5373 -0.7966
21765SOL    HW266737   3.036   5.817   7.629 -0.0337  0.2184  0.3257
21766SOL     OW66738   3.427   4.384   1.756 -0.6067  0.1203 -0.7602
21766SOL    HW166739   3.361   4.407   1.690 -1.1420  0.2038 -0.2068
21766SOL    HW266740   3.434   4.288   1.750  1.1863  0.3059 -2.6522
21767SOL     OW66741   3.266   0.689   0.932  0.4965  0.1405  0.1993
21767SOL    HW166742   3.214   0.656   0.859  0.6882 -0.1830  0.2095
21767SOL    HW266743   3.333   0.623   0.946 -0.1122 -0.2639  1.2870
21768SOL     OW66744   7.466   4.801   0.703 -0.0539 -0.4889  0.2510
21768SOL    HW166745   7.524   4.743   0.654  1.8671  0.3760  1.4120
21768SOL    HW266746   7.435   4.748   0.776  1.8100 -0.0641  1.3902
21769SOL     OW66747   4.533   1.849  10.892 -0.7867 -0.0461 -0.0037
21769SOL    HW166748   4.605   1.830  10.831 -0.3634  1.8651 -0.1599
21769SOL    HW266749   4.577   1.880  10.971 -1.4184  0.2097  0.2507
21770SOL     OW66750   3.856   4.766   0.810 -0.0908 -0.4132 -0.3476
21770SOL    HW166751   3.880   4.799   0.897  2.2301 -0.4110 -0.9390
21770SOL    HW266752   3.792   4.697   0.828 -0.6146  0.4477  1.2667
21771SOL     OW66753   6.763   2.856   4.018  0.1478 -0.5209 -0.2428
21771SOL    HW166754   6.671   2.882   4.019  0.1125 -0.6704  0.5830
21771SOL    HW266755   6.798   2.888   4.100  0.7865 -0.6586 -0.4560
21772SOL     OW66756   2.596   4.732  11.030  0.0031 -0.3193  0.0624
21772SOL    HW166757   2.592   4.677  10.952  2.4091  1.4190 -1.4151
21772SOL    HW266758   2.669   4.697  11.080 -1.1492 -1.0427  1.3084
21773SOL     OW66759   7.820   7.905  10.117 -0.7760  0.3488  0.1086
21773SOL    HW166760   7.849   7.952  10.195  0.7843  1.2105 -0.9599
21773SOL    HW266761   7.784   7.972  10.060 -1.6865 -0.2477 -0.0455
21774SOL     OW66762   7.136   2.280   1.581 -0.5732  0.3300  0.1535
21774SOL    HW166763   7.072   2.310   1.646  0.5597  0.4070  1.2863
21774SOL    HW266764   7.167   2.360   1.538  0.8381  0.6339  1.6354
21775SOL     OW66765   3.111   4.560   7.627 -0.4937 -0.5570  0.5572
21775SOL    HW166766   3.177   4.618   7.590 -2.6876  3.7030  2.5991
21775SOL    HW266767   3.051   4.542   7.554 -1.1312  2.0305  0.3597
21776SOL     OW66768   2.241   0.171   8.464  0.9631 -0.0791 -0.3484
21776SOL    HW166769   2.207   0.111   8.530  0.6896  0.3732 -0.0726
21776SOL    HW266770   2.168   0.182   8.402  0.0885  1.8908  0.9207
21777SOL     OW66771   4.001   5.809  11.179  0.8507 -0.4026  0.5058
21777SOL    HW166772   4.072   5.776  11.124  0.8763  1.0010 -0.3591
21777SOL    HW266773   3.940   5.736  11.186  0.0652 -0.1906 -2.7360
21778SOL     OW66774   2.293   4.338   9.172 -0.8170  0.3784  0.7338
21778SOL    HW166775   2.327   4.305   9.256  0.7847  0.4331  0.1417
21778SOL    HW266776   2.313   4.268   9.109 -0.0787  1.2104  0.0171
21779SOL     OW66777   4.306   4.265  12.103  0.5890  0.6175 -0.1743
21779SOL    HW166778   4.271   4.354  12.111  2.7728  1.5834 -0.5785
21779SOL    HW266779   4.368   4.257  12.175  0.2442 -0.7077  0.0018
21780SOL     OW66780   2.437   4.683   8.661  0.6901  0.4852 -0.7482
21780SOL    HW166781   2.409   4.635   8.739 -1.4530  0.9608 -1.1662
21780SOL    HW266782   2.447   4.615   8.594 -1.5020  0.4566 -1.1086
21781SOL     OW66783   4.314   6.114   3.552 -0.6231  0.2664  0.1751
21781SOL    HW166784   4.293   6.206   3.565 -0.1986  0.6284 -1.4745
21781SOL    HW266785   4.281   6.070   3.630  0.4299  1.9840  1.6478
21782SOL     OW66786   3.619   4.321   0.070 -0.2666  0.0031 -0.3321
21782SOL    HW166787   3.599   4.349   0.159  0.7511  2.4496 -0.7843
21782SOL    HW266788   3.646   4.230   0.079  2.6729  0.9317  2.3703
21783SOL     OW66789   6.408   4.059   3.107 -0.2934 -0.3000  0.9591
21783SOL    HW166790   6.351   4.083   3.181  0.9172  0.4094  1.6953
21783SOL    HW266791   6.466   4.134   3.096  0.1866 -0.8076 -0.0903
21784SOL     OW66792   6.936   5.815  11.800 -0.1641 -0.2395  0.3019
21784SOL    HW166793   6.916   5.747  11.736 -0.5038 -1.1954  1.3870
21784SOL    HW266794   7.008   5.778  11.852  0.2685  0.6224  0.3280
21785SOL     OW66795   0.330   1.637   8.967  0.0382 -0.1719 -0.1407
21785SOL    HW166796   0.300   1.609   9.054  0.7148 -2.4295 -0.5658
21785SOL    HW266797   0.277   1.714   8.947 -1.0203 -0.3440  1.7256
21786SOL     OW66798   1.649   3.551  10.072  0.1390 -0.4960 -0.4029
21786SOL    HW166799   1.651   3.611  10.146 -0.3899  0.1930 -0.9341
21786SOL    HW266800   1.559   3.517  10.071  0.3123 -0.9638 -0.3725
21787SOL     OW66801   7.369   0.808   7.478 -0.3316  0.6445 -0.2352
21787SOL    HW166802   7.301   0.876   7.479  2.1516  3.3187 -0.6743
21787SOL    HW266803   7.394   0.801   7.386 -0.3204 -0.6633 -0.1444
21788SOL     OW66804   1.039   0.612   0.832  0.3695  0.4562 -0.0358
21788SOL    HW166805   1.074   0.701   0.836 -0.1159  0.6090  1.2753
21788SOL    HW266806   1.115   0.557   0.811  1.0078  0.9952  0.8360
21789SOL     OW66807   3.123   1.985   3.199  0.1615  0.0468  0.0047
21789SOL    HW166808   3.134   2.023   3.287 -0.5412 -0.6007  0.3838
21789SOL    HW266809   3.207   2.002   3.155  1.6256 -2.0471  1.7498
21790SOL     OW66810   1.876   4.479   0.348 -0.1456 -0.3101 -0.6532
21790SOL    HW166811   1.939   4.428   0.399  1.3827  1.1992 -0.9564
21790SOL    HW266812   1.896   4.458   0.257 -0.4549 -0.2449 -0.7390
21791SOL     OW66813   1.142   4.597   9.153  0.3054  0.1268  0.3134
21791SOL    HW166814   1.209   4.558   9.098 -2.0931 -1.5460 -1.6630
21791SOL    HW266815   1.114   4.526   9.212 -0.0101  0.6739  0.8385
21792SOL     OW66816   5.762   7.621   7.804  0.2275 -0.0506  0.1043
21792SOL    HW166817   5.706   7.549   7.834  0.6552 -0.1668  0.6403
21792SOL    HW266818   5.822   7.636   7.877  1.7101 -0.7548 -0.9157
21793SOL     OW66819   7.059   3.192   8.716  0.2419  0.0700  0.3863
21793SOL    HW166820   7.016   3.110   8.740 -2.3571  1.4823  0.9094
21793SOL    HW266821   7.137   3.165   8.667 -2.1323 -2.7353 -2.2462
21794SOL     OW66822   7.005   2.133   3.717  0.3185  0.3207 -0.0409
21794SOL    HW166823   7.037   2.043   3.722 -2.4650 -0.7494 -0.2604
21794SOL    HW266824   6.993   2.159   3.809  0.1714  0.1270 -0.0063
21795SOL     OW66825   6.345   5.897   5.716 -0.6599  0.2708 -0.2615
21795SOL    HW166826   6.275   5.834   5.731  0.1706 -0.8813 -0.9942
21795SOL    HW266827   6.380   5.916   5.803  0.4123 -1.9062 -0.1551
21796SOL     OW66828   0.210   3.422   5.086 -0.3814  0.1890  0.5247
21796SOL    HW166829   0.171   3.340   5.055  0.1516  0.1998 -0.1946
21796SOL    HW266830   0.304   3.409   5.075 -0.3003  0.9667  0.2489
21797SOL     OW66831   5.100   1.984   8.395 -0.4513 -0.0852 -0.0281
21797SOL    HW166832   5.029   2.032   8.437  0.1215  1.3406 -0.6269
21797SOL    HW266833   5.057   1.911   8.351 -1.2566 -0.6133  1.5514
21798SOL     OW66834   6.182   3.092   3.253  0.1871 -0.8800 -0.0477
21798SOL    HW166835   6.127   3.027   3.209 -0.4470 -0.2720 -0.1638
21798SOL    HW266836   6.239   3.126   3.183  0.4644 -1.2468 -0.0033
21799SOL     OW66837   5.006   3.583   2.830  0.2261  0.2851  0.1825
21799SOL    HW166838   5.056   3.665   2.822 -1.2451  1.1824 -0.1900
21799SOL    HW266839   5.054   3.520   2.776  1.1202  1.0317  0.0842
21800SOL     OW66840   4.925   6.047   8.998  0.6428 -0.5084 -0.4076
21800SOL    HW166841   5.001   6.105   8.991 -0.4942  0.8906 -1.8790
21800SOL    HW266842   4.892   6.039   8.909 -0.0523 -2.3576 -0.0274
21801SOL     OW66843   2.971   6.411   4.916 -0.1501 -0.8706 -0.4260
21801SOL    HW166844   2.988   6.501   4.943  0.1259 -0.5218 -1.6934
21801SOL    HW266845   2.897   6.383   4.969 -0.2827  0.1295 -0.0733
21802SOL     OW66846   7.264   3.531   7.383  0.3062 -0.6596  0.5176
21802SOL    HW166847   7.319   3.575   7.448 -0.1932 -0.4398  0.7935
21802SOL    HW266848   7.176   3.531   7.422 -0.4772  1.3840 -1.0636
21803SOL     OW66849   6.055   6.681   8.382 -0.6595  0.1308 -0.5259
21803SOL    HW166850   6.101   6.744   8.326  0.8102 -0.2579  0.1818
21803SOL    HW266851   6.005   6.734   8.443  1.0401  0.6857  0.4606
21804SOL     OW66852   5.370   0.326   3.148  0.4565 -0.3980 -0.4059
21804SOL    HW166853   5.444   0.291   3.198  1.3072 -1.0247 -2.0340
21804SOL    HW266854   5.370   0.276   3.066 -0.8798  0.5913 -1.0553
21805SOL     OW66855   0.625   4.495   1.067  0.1497 -0.0096 -0.6923
21805SOL    HW166856   0.628   4.547   1.147 -0.9769 -3.0117  1.5072
21805SOL    HW266857   0.654   4.408   1.094  0.1781 -1.0582 -3.6878
21806SOL     OW66858   2.501   2.968   3.757 -0.3504  0.3991 -0.2369
21806SOL    HW166859   2.570   2.929   3.703 -1.1144 -0.2618 -0.7526
21806SOL    HW266860   2.421   2.922   3.731 -0.8656  0.6183  0.8958
21807SOL     OW66861   6.111   1.360  12.160  0.2293  0.3196  0.2162
21807SOL    HW166862   6.046   1.347  12.091 -0.4375 -0.4704  0.9699
21807SOL    HW266863   6.190   1.388  12.114 -0.4547  0.6678 -0.7773
21808SOL     OW66864   7.928   4.024   6.668 -0.1042  0.0086 -0.4794
21808SOL    HW166865   7.874   3.947   6.651 -1.4573  0.9870 -0.8174
21808SOL    HW266866   7.997   3.993   6.727 -0.7136 -1.4117 -0.4825
21809SOL     OW66867   4.567   4.098   1.884 -0.4848 -0.4717  0.1187
21809SOL    HW166868   4.639   4.067   1.939  0.1158 -0.0523 -0.4037
21809SOL    HW266869   4.604   4.174   1.838 -1.4236  0.0389  0.2012
21810SOL     OW66870   4.494   6.209   5.817 -0.2504 -0.1560 -0.1784
21810SOL    HW166871   4.569   6.266   5.799 -0.6684  1.0625  1.6387
21810SOL    HW266872   4.452   6.199   5.732  1.9671 -0.9360 -1.2691
21811SOL     OW66873   6.747   6.413   0.127 -0.2444  0.3993  0.5441
21811SOL    HW166874   6.781   6.436   0.040  1.9743 -3.2574  0.2282
21811SOL    HW266875   6.663   6.369   0.109 -0.9475  1.7169  0.5167
21812SOL     OW66876   4.766   6.543   3.339 -0.5866 -0.6044 -0.1004
21812SOL    HW166877   4.706   6.613   3.315  0.1924  0.1116 -0.0270
21812SOL    HW266878   4.799   6.510   3.256 -0.0249 -0.0358 -0.1138
21813SOL     OW66879   4.679   3.312   4.287  0.2561  0.5460 -0.3391
21813SOL    HW166880   4.739   3.380   4.256  0.2164  0.0339 -1.5785
21813SOL    HW266881   4.736   3.240   4.315  0.3026  1.0930  1.0673
21814SOL     OW66882   0.720   5.402   2.389  1.2441 -0.3560 -0.0189
21814SOL    HW166883   0.645   5.343   2.397  0.6526  0.6218  2.4769
21814SOL    HW266884   0.692   5.467   2.324 -0.0502 -0.0958  0.7602
21815SOL     OW66885   5.510   6.305  10.823 -0.1401 -0.3973 -0.4812
21815SOL    HW166886   5.461   6.302  10.740 -2.0893 -2.5989  0.6155
21815SOL    HW266887   5.450   6.266  10.887  1.8363 -0.0571  1.7022
21816SOL     OW66888   7.199   0.615   7.178 -0.2166  0.4280 -0.3190
21816SOL    HW166889   7.188   0.613   7.273 -1.8330 -1.8421 -0.4507
21816SOL    HW266890   7.290   0.641   7.165  0.7121 -1.2230  1.9670
21817SOL     OW66891   5.241   4.096  11.999  0.3755 -0.5556 -0.1421
21817SOL    HW166892   5.161   4.143  12.023  0.7983 -0.0378  0.2929
21817SOL    HW266893   5.283   4.151  11.933  0.9289 -0.2495  0.4484
21818SOL     OW66894   0.490   4.251   8.695 -0.2035 -0.1674 -0.2565
21818SOL    HW166895   0.473   4.184   8.628 -0.6532 -0.3841  0.0766
21818SOL    HW266896   0.473   4.334   8.650 -0.4777 -0.3105 -0.4192
21819SOL     OW66897   6.121   1.603   6.630  0.1781  0.1218  0.1474
21819SOL    HW166898   6.034   1.617   6.668  0.6829  1.9088  0.7463
21819SOL    HW266899   6.149   1.518   6.663 -1.9543 -1.2656 -1.3298
21820SOL     OW66900   5.293   1.632   1.236 -0.0703 -0.4444 -0.0099
21820SOL    HW166901   5.256   1.554   1.195 -1.0614  1.1415 -2.3249
21820SOL    HW266902   5.219   1.671   1.283  0.6387 -1.3099  1.9178
21821SOL     OW66903   6.206   1.504   8.095  0.7470  0.1735  0.1198
21821SOL    HW166904   6.146   1.430   8.106  0.0524  1.0557  3.2997
21821SOL    HW266905   6.149   1.579   8.078  1.0987  0.6348  0.9175
21822SOL     OW66906   0.186   4.038   9.156 -0.5004  0.5209 -0.8073
21822SOL    HW166907   0.260   4.007   9.104 -1.5457  0.2185 -2.1651
21822SOL    HW266908   0.157   4.118   9.112  0.9426  2.4761  1.5342
21823SOL     OW66909   7.730   1.025   1.712 -0.0779  0.3732 -0.3420
21823SOL    HW166910   7.823   1.050   1.717 -0.1503  0.7449 -0.7707
21823SOL    HW266911   7.706   1.003   1.802  1.0244 -1.9769 -0.5386
21824SOL     OW66912   0.431   6.803   7.314 -0.1743 -0.0569  0.2641
21824SOL    HW166913   0.349   6.809   7.362 -0.0226 -0.7028  0.6229
21824SOL    HW266914   0.499   6.812   7.381  0.0933  2.0303 -0.2110
21825SOL     OW66915   7.947   4.361   0.180 -0.5052 -0.4879 -0.2602
21825SOL    HW166916   8.017   4.331   0.238  0.6743  1.8145 -0.3982
21825SOL    HW266917   7.967   4.321   0.095  0.6133  0.0766 -0.2708
21826SOL     OW66918   1.529   4.259   9.879  0.2153 -0.1885 -0.4480
21826SOL    HW166919   1.537   4.281   9.786 -2.7164 -0.4667 -0.8612
21826SOL    HW266920   1.449   4.208   9.885 -0.1580  0.5431  2.3494
21827SOL     OW66921   0.561   0.749   8.966  0.1393 -0.0481  0.2496
21827SOL    HW166922   0.602   0.762   8.881 -0.2839  1.3558  0.2308
21827SOL    HW266923   0.629   0.772   9.030  0.5520 -1.3869  0.3210
21828SOL     OW66924   2.816   4.058   1.233 -0.1605  0.5053  0.4351
21828SOL    HW166925   2.750   3.998   1.269 -0.8247  0.9147 -0.0786
21828SOL    HW266926   2.869   4.083   1.309 -0.0688 -0.4729  0.7081
21829SOL     OW66927   5.583   6.714   1.868  0.0503 -0.5382 -0.0281
21829SOL    HW166928   5.542   6.640   1.824  1.5103 -0.5847 -1.4062
21829SOL    HW266929   5.564   6.701   1.960 -0.2847 -2.2849 -0.3118
21830SOL     OW66930   5.273   6.575   9.343 -0.1950  0.0662  0.3966
21830SOL    HW166931   5.241   6.564   9.432 -1.5345 -1.9497 -0.2626
21830SOL    HW266932   5.368   6.581   9.351 -0.3037  0.0510  1.9422
21831SOL     OW66933   2.900   2.663   7.466 -0.1815 -0.7821  0.3316
21831SOL    HW166934   2.822   2.641   7.517 -0.6378  1.4061  0.6695
21831SOL    HW266935   2.867   2.712   7.392  0.8843  0.5458  0.7008
21832SOL     OW66936   0.604   7.451   5.827  0.1314 -0.3178 -0.2544
21832SOL    HW166937   0.521   7.406   5.842  0.0943 -0.2625 -0.2969
21832SOL    HW266938   0.664   7.382   5.798  0.2666 -0.4719  0.3715
21833SOL     OW66939   4.322   0.758   9.391 -0.0696 -0.0643  0.8047
21833SOL    HW166940   4.288   0.669   9.398  0.4476 -0.1427  4.9973
21833SOL    HW266941   4.265   0.801   9.328 -0.9509 -3.0311 -0.6047
21834SOL     OW66942   0.628   0.027   2.676  0.3053 -0.0944 -0.2380
21834SOL    HW166943   0.622   0.117   2.642  0.0395  0.7054  1.7869
21834SOL    HW266944   0.538  -0.005   2.675  0.3873 -0.3321 -0.8662
21835SOL     OW66945   1.058   7.944   7.423 -0.1112 -0.3876 -0.4778
21835SOL    HW166946   1.112   7.865   7.426 -0.0617 -0.3727 -0.8992
21835SOL    HW266947   0.996   7.928   7.352  1.5801  0.9994 -2.3869
21836SOL     OW66948   7.588   2.609   2.428 -0.6928 -0.2787 -0.0168
21836SOL    HW166949   7.667   2.585   2.379 -1.6539 -1.0688 -1.2369
21836SOL    HW266950   7.550   2.525   2.454 -1.0037  0.1013  0.8052
21837SOL     OW66951   3.743   0.742  11.602 -0.3784 -0.1491 -0.1760
21837SOL    HW166952   3.733   0.744  11.697 -0.1696 -1.3277 -0.1138
21837SOL    HW266953   3.667   0.693  11.571 -0.2266 -0.1283 -0.5864
21838SOL     OW66954   7.279   2.473   0.961 -0.5001 -0.2904  0.1028
21838SOL    HW166955   7.243   2.552   0.921 -0.6792 -0.1645  0.5083
21838SOL    HW266956   7.348   2.505   1.019  0.2314 -0.5245 -0.6243
21839SOL     OW66957   6.172   1.246   1.366 -0.2316  0.3902  0.2973
21839SOL    HW166958   6.125   1.324   1.395  0.4331  0.7175  0.5218
21839SOL    HW266959   6.116   1.207   1.299 -0.0462  1.6916 -0.6525
21840SOL     OW66960   5.923   0.822   6.426 -0.0321 -0.1870  0.7265
21840SOL    HW166961   5.902   0.850   6.516 -1.2976 -0.2097  0.4591
21840SOL    HW266962   5.843   0.840   6.377  0.0499 -1.7706 -0.0277
21841SOL     OW66963   7.263   1.098   2.666  0.3465 -0.1532  0.2202
21841SOL    HW166964   7.252   1.007   2.639 -0.4417  0.9155 -3.7479
21841SOL    HW266965   7.355   1.117   2.650 -0.0398  0.3803 -1.5458
21842SOL     OW66966   1.438   3.012   4.263 -0.0071 -0.1800  0.4515
21842SOL    HW166967   1.392   2.938   4.303 -0.8875  0.6037  0.9308
21842SOL    HW266968   1.425   3.001   4.169 -0.5660 -0.3639  0.5456
21843SOL     OW66969   0.805   3.246   6.260 -0.1821 -0.2785 -0.4047
21843SOL    HW166970   0.873   3.245   6.328 -0.0181 -1.1324 -0.5692
21843SOL    HW266971   0.783   3.338   6.250 -0.7974 -0.1800  1.3868
21844SOL     OW66972   2.561   5.986   4.086  0.0987  0.9695 -0.5785
21844SOL    HW166973   2.503   6.010   4.014  0.4070 -0.0228 -1.1666
21844SOL    HW266974   2.636   5.944   4.044  0.1085  0.0338  0.3337
21845SOL     OW66975   2.293   7.573   6.053 -0.6814 -0.3115  0.3150
21845SOL    HW166976   2.260   7.589   5.965 -1.8848 -0.6374  0.6875
21845SOL    HW266977   2.316   7.479   6.054  1.2839  0.1085 -0.2415
21846SOL     OW66978   4.780   6.853   9.249 -0.4076  0.0731 -0.0572
21846SOL    HW166979   4.801   6.908   9.325  2.9336  1.8744 -1.9954
21846SOL    HW266980   4.721   6.907   9.197 -0.2732  0.1592 -0.1222
21847SOL     OW66981   7.096   0.357   0.774 -0.5582 -0.3610  0.0165
21847SOL    HW166982   7.041   0.370   0.697 -0.0031  0.4421 -0.2477
21847SOL    HW266983   7.157   0.288   0.748 -0.8017 -0.5641 -0.0242
21848SOL     OW66984   3.876   6.093   3.571 -0.5410 -0.2320  0.2558
21848SOL    HW166985   3.869   6.052   3.484  1.7074 -1.2290  0.4659
21848SOL    HW266986   3.920   6.176   3.554  0.3960 -0.6694  0.4583
21849SOL     OW66987   6.761   0.328   8.156 -0.1031  0.5265 -0.2073
21849SOL    HW166988   6.770   0.291   8.068 -0.4898  1.7484 -0.7841
21849SOL    HW266989   6.831   0.393   8.161  1.1318 -0.8380  1.1205
21850SOL     OW66990   7.030   2.653   6.271 -0.5492 -0.2699  0.2064
21850SOL    HW166991   6.946   2.643   6.227 -0.0963  1.3012 -1.1213
21850SOL    HW266992   7.095   2.627   6.205  0.1082  1.3043  0.1829
21851SOL     OW66993   3.618   6.146   1.578 -0.2233  0.3080 -0.6107
21851SOL    HW166994   3.572   6.064   1.597 -0.7086  0.4675 -1.0814
21851SOL    HW266995   3.651   6.175   1.663 -0.1864 -0.2909 -0.4155
21852SOL     OW66996   7.718   1.709   2.934 -0.5465  0.4915  0.2306
21852SOL    HW166997   7.727   1.767   3.009 -1.3917  1.8858 -0.7015
21852SOL    HW266998   7.624   1.702   2.920 -0.4004  0.3829 -0.7827
21853SOL     OW66999   0.958   2.834  12.172  0.3368 -0.4716  0.4139
21853SOL    HW167000   0.913   2.915  12.196 -1.9708 -0.9609 -1.7392
21853SOL    HW267001   0.991   2.850  12.083  3.2539 -0.6845  1.3471
21854SOL     OW67002   3.826   0.668   3.440 -0.4656 -0.2038 -0.1532
21854SOL    HW167003   3.769   0.606   3.396 -0.2170 -2.2227  2.1366
21854SOL    HW267004   3.799   0.665   3.532  0.5229  2.0224  0.2854
21855SOL     OW67005   0.283   4.400  11.872 -0.1664  0.3870 -0.4015
21855SOL    HW167006   0.199   4.433  11.902  0.5334  0.7975  1.2220
21855SOL    HW267007   0.344   4.472  11.888  0.7610 -0.4422 -0.1129
21856SOL     OW67008   7.770   6.463   9.780 -0.1862 -0.2532 -0.2917
21856SOL    HW167009   7.743   6.512   9.703  0.2309 -0.3925 -0.5314
21856SOL    HW267010   7.786   6.530   9.847  1.3724  0.0584 -0.9109
21857SOL     OW67011   6.086   5.014  11.837 -0.0259 -0.2105  0.2331
21857SOL    HW167012   6.029   5.042  11.909 -0.0233  1.9552 -0.5429
21857SOL    HW267013   6.029   5.015  11.760  0.7585  0.8227 -0.3508
21858SOL     OW67014   1.256   7.376   6.845 -0.1558 -0.1195 -0.1024
21858SOL    HW167015   1.181   7.409   6.794  0.2531  1.7942  0.4508
21858SOL    HW267016   1.220   7.301   6.893 -1.6335  0.5198 -0.1376
21859SOL     OW67017   6.343   0.908   4.556 -0.1015 -0.3413 -0.6782
21859SOL    HW167018   6.381   0.983   4.602  0.9299 -2.0841  1.4401
21859SOL    HW267019   6.248   0.920   4.565  0.0223  1.0474 -1.0050
21860SOL     OW67020   5.756   1.789   5.325  0.4765  0.2773  0.1420
21860SOL    HW167021   5.769   1.730   5.251 -1.3625  0.0927 -0.0760
21860SOL    HW267022   5.843   1.798   5.364  1.2158 -0.7284 -1.1997
21861SOL     OW67023   6.833   3.071  10.212  0.0674  0.3151 -0.0450
21861SOL    HW167024   6.777   3.097  10.139 -1.1411 -1.1395  0.2983
21861SOL    HW267025   6.788   3.104  10.290  0.1286 -0.1409  0.1872
21862SOL     OW67026   7.807   1.622   2.154 -0.4276  0.0349 -0.0565
21862SOL    HW167027   7.739   1.682   2.185 -1.0354 -0.7120  0.0791
21862SOL    HW267028   7.887   1.652   2.197 -0.3392  1.8528 -1.3468
21863SOL     OW67029   2.953   7.450   8.071 -0.0442 -0.3671  0.4539
21863SOL    HW167030   3.022   7.414   8.015 -0.6937 -0.0395 -0.5792
21863SOL    HW267031   2.892   7.378   8.084 -1.8735  0.4646 -2.4393
21864SOL     OW67032   7.120   0.875   1.012 -0.3018 -0.6579 -0.2197
21864SOL    HW167033   7.159   0.962   1.024 -0.1507 -0.8062  0.3949
21864SOL    HW267034   7.037   0.892   0.967 -0.0590 -0.2368 -0.5130
21865SOL     OW67035   7.596   6.495  11.787  0.1561  0.1921 -0.6617
21865SOL    HW167036   7.585   6.403  11.765  0.8297  0.4101 -2.0438
21865SOL    HW267037   7.512   6.536  11.763 -1.4444 -0.5221  3.0911
21866SOL     OW67038   4.284   4.738   3.446 -0.2282  0.3148 -0.7693
21866SOL    HW167039   4.281   4.667   3.510  0.7079  1.7818  0.9799
21866SOL    HW267040   4.288   4.694   3.361  0.8621 -1.7136  0.2802
21867SOL     OW67041   0.670   3.706   0.769 -0.1743  0.3205 -0.5204
21867SOL    HW167042   0.645   3.672   0.854 -0.5211  1.3809 -0.1789
21867SOL    HW267043   0.675   3.629   0.712 -0.1321 -0.3691  0.4022
21868SOL     OW67044   5.091   4.814  10.340  0.2645 -0.1172  0.6747
21868SOL    HW167045   5.149   4.793  10.414  1.9642 -1.0197 -0.8123
21868SOL    HW267046   5.112   4.905  10.319  0.0820  0.0095  1.0291
21869SOL     OW67047   3.277   3.898   7.320  0.2557  0.3222  0.2567
21869SOL    HW167048   3.279   3.993   7.329  3.0954  0.3923 -0.2081
21869SOL    HW267049   3.306   3.865   7.405  1.2085 -0.0006 -0.1708
21870SOL     OW67050   1.902   3.129   8.381  0.2184  0.0351  0.2105
21870SOL    HW167051   1.944   3.173   8.456  0.9662 -0.3580  0.0345
21870SOL    HW267052   1.886   3.040   8.411  1.0691 -0.2954 -0.2864
21871SOL     OW67053   2.682   4.439   0.399 -0.2252 -0.2030  0.3212
21871SOL    HW167054   2.683   4.476   0.487  1.3079 -1.2602  0.7781
21871SOL    HW267055   2.712   4.511   0.343 -2.4301  0.8898  0.4138
21872SOL     OW67056   6.074   6.939   9.651  0.4793  0.2546  0.4767
21872SOL    HW167057   6.034   6.972   9.570  1.6629  0.1758 -0.1564
21872SOL    HW267058   6.046   7.001   9.718  1.5796  1.8410 -0.4532
21873SOL     OW67059   4.537   2.754  10.911 -0.3987 -0.2375 -0.4054
21873SOL    HW167060   4.487   2.783  10.987 -1.5304 -1.7474 -0.5268
21873SOL    HW267061   4.613   2.709  10.947  1.0471  2.1561 -0.2174
21874SOL     OW67062   7.941   7.743   5.785 -0.0090 -0.7344 -0.5110
21874SOL    HW167063   7.864   7.697   5.751 -1.4686  0.4940  0.9742
21874SOL    HW267064   7.968   7.801   5.714 -0.7395 -0.8374 -0.8848
21875SOL     OW67065   4.981   7.954   3.279 -0.6252  0.2078  0.2243
21875SOL    HW167066   4.961   7.892   3.209  2.3938 -0.1151 -0.5133
21875SOL    HW267067   4.967   7.904   3.360  3.5371 -2.4315 -0.3246
21876SOL     OW67068   3.630   0.961   2.185 -0.2420 -0.2471 -0.4174
21876SOL    HW167069   3.657   1.036   2.238 -0.6044 -0.9169  0.7685
21876SOL    HW267070   3.538   0.978   2.165 -1.3553 -1.8416  2.6777
21877SOL     OW67071   3.378   0.081   5.642 -0.1167  0.3089  0.1338
21877SOL    HW167072   3.395  -0.013   5.638  0.9676  0.5117 -3.1076
21877SOL    HW267073   3.302   0.094   5.585 -0.0928  1.4104  0.3291
21878SOL     OW67074   0.206   6.949   1.272  0.6141  0.1214  0.5176
21878SOL    HW167075   0.158   6.996   1.204  1.6857  0.0242 -0.3241
21878SOL    HW267076   0.217   7.014   1.342 -1.6841 -0.1618  1.2481
21879SOL     OW67077   4.143   1.049   1.207  0.6188  0.0327  0.2151
21879SOL    HW167078   4.214   1.042   1.142 -0.0937 -1.6840 -0.4526
21879SOL    HW267079   4.175   1.000   1.283  1.2147  1.5567  0.9901
21880SOL     OW67080   2.605   7.283  11.313  0.0964  0.2671 -0.0171
21880SOL    HW167081   2.654   7.293  11.395  0.2101  0.2600 -0.0835
21880SOL    HW267082   2.538   7.217  11.333 -0.1710  0.6031  0.2011
21881SOL     OW67083   1.845   0.098   9.912 -0.2359 -0.2702 -0.3510
21881SOL    HW167084   1.842   0.003   9.927  1.9115 -0.1278  1.5126
21881SOL    HW267085   1.803   0.136   9.988 -1.4486  0.3244 -1.2784
21882SOL     OW67086   1.258   3.405   6.460  0.3891 -0.1709 -0.3132
21882SOL    HW167087   1.280   3.333   6.400  0.0633 -0.6878  0.1836
21882SOL    HW267088   1.166   3.392   6.481  0.1439  0.7870 -0.7393
21883SOL     OW67089   1.419   0.273   5.464  0.1658  0.3104  0.1083
21883SOL    HW167090   1.430   0.195   5.518 -1.1130 -0.2736 -0.4269
21883SOL    HW267091   1.333   0.307   5.487  0.9684  1.9814  0.8145
21884SOL     OW67092   2.273   4.026   2.783  0.1521  0.6245 -0.0582
21884SOL    HW167093   2.322   4.002   2.862  0.1161 -0.8582 -0.4463
21884SOL    HW267094   2.334   4.012   2.711 -0.8342 -1.5380 -0.5754
21885SOL     OW67095   6.857   5.744   5.828  0.2943 -0.4402 -0.0584
21885SOL    HW167096   6.946   5.774   5.811 -0.1096  1.0093  0.2432
21885SOL    HW267097   6.820   5.727   5.741 -0.2894  2.5354 -0.5210
21886SOL     OW67098   5.942   7.275   7.457 -0.3050 -1.0444 -0.3456
21886SOL    HW167099   5.933   7.306   7.547 -0.2026 -0.0206 -0.6658
21886SOL    HW267100   5.857   7.293   7.417  0.0380 -0.3121 -0.7780
21887SOL     OW67101   6.387   7.829   0.270 -0.1918 -0.0452  0.1798
21887SOL    HW167102   6.437   7.869   0.200  0.4488  0.9264  1.1612
21887SOL    HW267103   6.376   7.738   0.243 -0.9683  0.5591 -1.7040
21888SOL     OW67104   3.164   2.198  11.391  0.4854  0.3650  0.0828
21888SOL    HW167105   3.106   2.231  11.460  1.0375  0.1009  0.6784
21888SOL    HW267106   3.240   2.256  11.395  1.2209 -0.6311  0.7663
21889SOL     OW67107   2.628   2.390   9.695  0.6573  0.5487 -0.0971
21889SOL    HW167108   2.627   2.352   9.607  0.8312  0.9733 -0.2839
21889SOL    HW267109   2.625   2.315   9.754  0.2568  0.2699 -0.4674
21890SOL     OW67110   1.015   2.091   0.202 -0.7015 -0.4880 -0.8064
21890SOL    HW167111   1.054   2.034   0.268 -0.8559 -0.9027 -1.0703
21890SOL    HW267112   1.019   2.040   0.121  0.4919  0.4253 -1.3584
21891SOL     OW67113   7.622   4.513  10.904 -0.0059  0.2412  0.2555
21891SOL    HW167114   7.553   4.471  10.853  0.8612 -0.2517 -0.5442
21891SOL    HW267115   7.614   4.607  10.885  1.0820 -0.0299 -1.8449
21892SOL     OW67116   1.247   6.311   7.324 -0.2303  0.7830 -0.6442
21892SOL    HW167117   1.312   6.320   7.255 -1.0611  0.6951 -1.4635
21892SOL    HW267118   1.163   6.322   7.279 -0.8913 -1.2992 -0.0463
21893SOL     OW67119   3.480   2.327   6.471  0.1999 -0.2860 -0.2053
21893SOL    HW167120   3.562   2.279   6.459 -0.0137 -1.1375  1.4757
21893SOL    HW267121   3.471   2.379   6.391  2.0576 -0.6372 -0.6948
21894SOL     OW67122   5.067   0.135  11.518  0.0700  0.6580  0.2770
21894SOL    HW167123   5.045   0.055  11.471  0.1910  1.2225 -0.7671
21894SOL    HW267124   4.992   0.151  11.575  0.2998 -0.5061  0.9282
21895SOL     OW67125   6.415   0.346   3.578  0.9148 -0.0252  0.5776
21895SOL    HW167126   6.388   0.435   3.554 -0.8391 -1.3683 -3.4405
21895SOL    HW267127   6.506   0.340   3.549  0.6846  0.1669 -0.2050
21896SOL     OW67128   3.707   0.158   3.053 -0.5393  0.3881  0.1457
21896SOL    HW167129   3.669   0.085   3.103  1.5415 -0.3308  0.7867
21896SOL    HW267130   3.800   0.137   3.047 -0.0977  2.3778 -0.7838
21897SOL     OW67131   6.262   6.260   1.883  0.3504 -0.1638  0.3170
21897SOL    HW167132   6.325   6.208   1.934 -0.3459 -1.6424 -0.2843
21897SOL    HW267133   6.215   6.310   1.949 -0.3329 -1.8278  1.1629
21898SOL     OW67134   1.607   4.369   5.653 -0.2374  0.0010  0.4315
21898SOL    HW167135   1.701   4.350   5.654 -0.2078 -0.0736  3.0199
21898SOL    HW267136   1.601   4.457   5.615  1.0165  0.4480  1.1889
21899SOL     OW67137   2.694   6.141   5.232 -0.6424  0.2894  0.2983
21899SOL    HW167138   2.772   6.197   5.224 -0.0881 -0.6277 -1.0971
21899SOL    HW267139   2.676   6.139   5.326  1.7742 -0.4446  0.8076
21900SOL     OW67140   7.726   5.935   0.258  0.7485 -0.2169 -0.3352
21900SOL    HW167141   7.798   5.905   0.203  0.8465  0.2835 -0.4889
21900SOL    HW267142   7.653   5.877   0.237  1.1796 -0.9068  0.0247
21901SOL     OW67143   3.914   7.542   2.681  0.5032  0.3114 -0.1840
21901SOL    HW167144   3.824   7.517   2.658  0.9059 -2.1119  0.6403
21901SOL    HW267145   3.918   7.532   2.776  2.1342 -1.5397 -0.3922
21902SOL     OW67146   3.944   5.286   2.300  0.2723  0.7857  0.7593
21902SOL    HW167147   4.015   5.302   2.238  1.4540  0.0714  1.8623
21902SOL    HW267148   3.867   5.270   2.246  1.2080  0.4359 -0.5074
21903SOL     OW67149   2.375   4.816   5.956  0.0401 -0.2754 -0.2117
21903SOL    HW167150   2.311   4.746   5.962 -0.2414  0.0643  1.1018
21903SOL    HW267151   2.326   4.895   5.980  0.7809  0.0880  0.1347
21904SOL     OW67152   6.762   6.611   6.415  0.4784 -0.1903  0.2977
21904SOL    HW167153   6.813   6.579   6.341 -0.2700 -1.9077  0.4643
21904SOL    HW267154   6.688   6.550   6.421 -1.1873  1.7419  0.5503
21905SOL     OW67155   2.228   0.926   0.226 -0.2606 -0.0996 -0.1306
21905SOL    HW167156   2.318   0.936   0.257 -0.3132 -1.6847  0.6345
21905SOL    HW267157   2.236   0.917   0.131  0.1809  1.6522 -0.2981
21906SOL     OW67158   1.983   1.795  11.922 -0.1345  0.3545 -0.2113
21906SOL    HW167159   2.020   1.707  11.925 -1.1505 -0.1724 -1.7908
21906SOL    HW267160   1.984   1.825  12.013  3.0600 -0.0391 -0.0160
21907SOL     OW67161   5.447   5.461  11.080 -0.4713  0.3447  0.3307
21907SOL    HW167162   5.458   5.465  10.985 -0.3143  0.6004  0.3589
21907SOL    HW267163   5.438   5.552  11.107 -0.0972  0.3002  0.6093
21908SOL     OW67164   0.154   2.394   3.431 -0.3650 -0.2933 -0.3053
21908SOL    HW167165   0.092   2.337   3.386 -2.2274  1.8068 -0.5986
21908SOL    HW267166   0.214   2.335   3.475 -2.2486 -2.4519 -0.4542
21909SOL     OW67167   0.010   4.191   8.922 -0.1902 -0.1021  0.2625
21909SOL    HW167168  -0.046   4.193   8.999 -1.5346  0.0636 -0.6939
21909SOL    HW267169   0.000   4.103   8.887 -1.6927  0.5913 -1.1921
21910SOL     OW67170   6.833   5.914   8.072 -0.1483 -0.6580 -0.5125
21910SOL    HW167171   6.832   5.908   8.167  0.0959 -0.6781 -0.5113
21910SOL    HW267172   6.740   5.915   8.047 -0.2155 -0.3387 -0.2561
21911SOL     OW67173   6.203   2.011   1.971  0.0795 -0.1228 -0.0858
21911SOL    HW167174   6.218   1.945   2.039  0.6122  0.0278 -0.0515
21911SOL    HW267175   6.111   2.035   1.982  0.2935  0.2966  0.9504
21912SOL     OW67176   7.236   0.191  10.793 -0.2306  0.2600 -0.0535
21912SOL    HW167177   7.191   0.161  10.714 -2.3791  1.8694  0.4646
21912SOL    HW267178   7.312   0.240  10.760 -0.9023  0.6178 -1.1241
21913SOL     OW67179   1.078   2.857  12.428 -0.3183 -0.1021 -0.4683
21913SOL    HW167180   1.049   2.821  12.344 -1.6851  0.2294 -0.1658
21913SOL    HW267181   1.114   2.943  12.406 -1.3895  0.3203 -0.6509
21914SOL     OW67182   2.582   4.589   4.703 -0.4901 -0.0126  0.3216
21914SOL    HW167183   2.577   4.589   4.607 -1.6957  0.4278  0.3645
21914SOL    HW267184   2.530   4.513   4.730 -1.3021  0.6391  0.6475
21915SOL     OW67185   2.289   2.863  12.082  0.7149 -0.0576  0.5644
21915SOL    HW167186   2.206   2.906  12.106  1.2296  0.9444  0.6329
21915SOL    HW267187   2.276   2.771  12.106 -0.1570  0.1971  1.1545
21916SOL     OW67188   4.023   3.883   3.173  0.3042 -0.0801 -0.3266
21916SOL    HW167189   3.963   3.925   3.112 -0.0816 -0.3082 -0.1100
21916SOL    HW267190   4.046   3.952   3.236 -0.5422 -0.2488  0.1883
21917SOL     OW67191   2.217   1.268   3.024  0.3141 -0.4773  0.3546
21917SOL    HW167192   2.202   1.221   3.107  0.6200  0.8436  1.1827
21917SOL    HW267193   2.209   1.200   2.957  1.2082 -1.8115  1.5311
21918SOL     OW67194   4.889   0.471  10.876  0.2721  0.0311 -0.5098
21918SOL    HW167195   4.972   0.518  10.881  0.3344 -0.1201  0.0125
21918SOL    HW267196   4.827   0.536  10.843  0.9022 -0.2865 -2.4394
21919SOL     OW67197   7.479   4.572   5.927 -0.6748 -0.3859  0.3672
21919SOL    HW167198   7.561   4.572   5.977 -0.8748  0.1741  0.7060
21919SOL    HW267199   7.496   4.629   5.852 -0.8339 -0.0657  0.5739
21920SOL     OW67200   3.613   5.249   7.741  0.1254 -0.3689 -0.2364
21920SOL    HW167201   3.660   5.308   7.682 -0.7411 -1.6398 -2.2948
21920SOL    HW267202   3.523   5.281   7.740  0.1472 -0.2301  0.6907
21921SOL     OW67203   2.307   5.207   8.048 -0.3466 -0.0584 -0.1784
21921SOL    HW167204   2.400   5.193   8.065 -0.0938  1.2310 -0.4353
21921SOL    HW267205   2.271   5.118   8.040  0.6041 -0.6127  1.1885
21922SOL     OW67206   1.343   3.949   6.603 -0.1103  0.4800  0.5908
21922SOL    HW167207   1.399   4.024   6.622 -1.2094  1.5403 -0.1886
21922SOL    HW267208   1.273   3.984   6.547  0.4906 -1.5341 -1.6059
21923SOL     OW67209   7.363   6.998   6.295  0.0626 -0.0220  0.3382
21923SOL    HW167210   7.283   7.049   6.280  0.4672  1.3781  2.4475
21923SOL    HW267211   7.332   6.915   6.331 -0.4627  0.2741  0.5805
21924SOL     OW67212   0.602   3.517   1.546  0.0106  0.1310  0.0828
21924SOL    HW167213   0.635   3.569   1.620 -0.0419  0.9256 -0.4409
21924SOL    HW267214   0.521   3.478   1.578 -0.4033  1.0717  0.2098
21925SOL     OW67215   7.019   1.212   5.604  0.4265 -0.1253  0.4312
21925SOL    HW167216   6.951   1.164   5.557  1.0895 -1.1218  0.4666
21925SOL    HW267217   6.974   1.243   5.683 -0.4261  0.7112 -0.3496
21926SOL     OW67218   5.523   6.188   8.376 -0.3843  0.1476 -0.0316
21926SOL    HW167219   5.433   6.218   8.389 -0.0521  1.3493 -0.3819
21926SOL    HW267220   5.566   6.261   8.331 -0.0993 -1.6871 -2.9497
21927SOL     OW67221   4.281   7.248   6.393 -0.6983  0.0799 -0.3054
21927SOL    HW167222   4.276   7.260   6.488  0.0123 -0.5402 -0.1742
21927SOL    HW267223   4.311   7.157   6.383  0.4238  0.5223 -1.0958
21928SOL     OW67224   2.663   2.445   1.517 -0.4349  0.2497 -0.1685
21928SOL    HW167225   2.736   2.386   1.539  0.0043  0.6193 -0.6308
21928SOL    HW267226   2.600   2.431   1.588  1.2808  1.9557  1.8059
21929SOL     OW67227   4.350   1.379   4.986  0.0489  0.0449 -0.1923
21929SOL    HW167228   4.391   1.294   4.970  1.3893  0.6924 -0.2864
21929SOL    HW267229   4.403   1.420   5.054 -0.9246  0.5913  0.2691
21930SOL     OW67230   0.078   4.867   4.113 -0.5831  0.2782 -0.0389
21930SOL    HW167231   0.131   4.793   4.144 -0.7455  0.7187  1.3483
21930SOL    HW267232   0.112   4.943   4.160 -0.5394  1.0845 -1.3123
21931SOL     OW67233   3.099   5.632   6.474  0.1785  0.2067 -0.1585
21931SOL    HW167234   3.072   5.675   6.555 -2.3721 -0.0471 -0.7694
21931SOL    HW267235   3.190   5.606   6.489  0.8586  3.0313  1.3735
21932SOL     OW67236   0.172   1.601  12.053  0.1725 -0.2818  0.1267
21932SOL    HW167237   0.179   1.546  12.130  0.0360 -0.5272 -0.0355
21932SOL    HW267238   0.145   1.686  12.087  0.6290 -0.2418  0.4033
21933SOL     OW67239   6.588   0.105   2.668 -0.2534 -0.0632  0.5735
21933SOL    HW167240   6.521   0.049   2.630  1.9969 -1.6521 -1.3330
21933SOL    HW267241   6.586   0.185   2.615 -0.0274 -0.4915 -0.0856
21934SOL     OW67242   6.588   1.259   2.580 -0.5713  0.1382 -0.4574
21934SOL    HW167243   6.529   1.211   2.639 -1.1234  0.9025 -0.3768
21934SOL    HW267244   6.530   1.316   2.529  0.1203  1.1615 -0.1296
21935SOL     OW67245   0.608   7.196   2.429 -0.6029 -0.4261  0.3376
21935SOL    HW167246   0.599   7.102   2.442  1.3452 -0.4587  1.8928
21935SOL    HW267247   0.697   7.216   2.458 -1.2814  2.0508  0.9639
21936SOL     OW67248   0.863   4.753   5.866 -0.6740  0.0591 -0.3875
21936SOL    HW167249   0.782   4.711   5.836 -0.0917 -1.3661 -0.0636
21936SOL    HW267250   0.929   4.684   5.860  0.8453  1.5507 -1.9381
21937SOL     OW67251   5.941   7.536   0.444  0.4107 -0.3352  0.0630
21937SOL    HW167252   5.860   7.509   0.487  0.8223 -0.8122  0.5638
21937SOL    HW267253   5.913   7.571   0.359 -0.3563 -0.0016  0.4489
21938SOL     OW67254   1.160   1.511   1.023 -0.3069 -0.0583  0.2567
21938SOL    HW167255   1.119   1.506   1.110 -0.0343 -0.2540  0.3769
21938SOL    HW267256   1.231   1.575   1.035 -0.1816 -0.1903  0.2136
21939SOL     OW67257   3.078   2.636   3.567 -0.3416  0.0329  0.0507
21939SOL    HW167258   3.091   2.730   3.561  2.7484 -0.3099 -0.5432
21939SOL    HW267259   3.046   2.610   3.481  2.0615  0.2345 -0.9846
21940SOL     OW67260   7.292   0.501  10.316  0.5432 -0.4010  0.0367
21940SOL    HW167261   7.236   0.566  10.357 -0.2365  0.9114 -2.8827
21940SOL    HW267262   7.379   0.517  10.353 -0.1792  0.3865  1.4447
21941SOL     OW67263   2.581   7.944   6.134 -0.3499 -0.4194  0.1406
21941SOL    HW167264   2.542   8.031   6.134  0.2884 -0.1363  0.3220
21941SOL    HW267265   2.656   7.950   6.192  0.0451 -0.9356 -0.3043
21942SOL     OW67266   7.277   6.558  12.364 -0.4544  0.2214 -0.0872
21942SOL    HW167267   7.304   6.513  12.284  0.7728  0.4542  0.1791
21942SOL    HW267268   7.285   6.651  12.343  2.2338  0.3267  1.0031
21943SOL     OW67269   2.754   1.721   0.359 -0.4181  0.3538 -0.4352
21943SOL    HW167270   2.759   1.801   0.307  1.5059  0.3963 -0.2574
21943SOL    HW267271   2.748   1.750   0.450 -1.4856  0.2730 -0.4655
21944SOL     OW67272   5.575   7.343   2.435  0.2168  0.1325  0.1349
21944SOL    HW167273   5.603   7.264   2.388 -0.8324 -0.7814  0.9858
21944SOL    HW267274   5.602   7.328   2.525 -0.1187  0.6872  0.3354
21945SOL     OW67275   2.295   1.873   7.852  0.5620 -0.3533  0.0461
21945SOL    HW167276   2.375   1.875   7.905  2.0901 -0.3687 -2.1323
21945SOL    HW267277   2.323   1.835   7.769 -1.8397 -0.7464 -0.6471
21946SOL     OW67278   5.254   6.338   1.663  0.3711 -0.3809 -0.2240
21946SOL    HW167279   5.218   6.298   1.584  0.8378  1.5959 -1.5023
21946SOL    HW267280   5.347   6.319   1.659  0.4277 -0.0989 -0.2730
21947SOL     OW67281   3.033   0.921   6.349  0.3399 -0.3120  0.5116
21947SOL    HW167282   3.094   0.955   6.415 -0.8967 -0.1514  1.6292
21947SOL    HW267283   3.042   0.825   6.356 -0.5175 -0.3381  1.7024
21948SOL     OW67284   3.354   1.179   9.252 -0.4778 -0.0999 -0.0015
21948SOL    HW167285   3.414   1.110   9.223  0.0454 -0.2906  1.4903
21948SOL    HW267286   3.378   1.255   9.198  2.2736  0.3265  1.6232
21949SOL     OW67287   3.892   3.802   3.718 -0.1442  0.0308  0.2305
21949SOL    HW167288   3.889   3.748   3.797 -0.1741  1.7267  1.4365
21949SOL    HW267289   3.886   3.739   3.646  1.8280 -1.7492  1.4879
21950SOL     OW67290   1.252   6.917   0.753 -0.0833 -0.2803  0.2790
21950SOL    HW167291   1.336   6.873   0.766 -0.5433 -1.3194 -0.1285
21950SOL    HW267292   1.204   6.903   0.835 -0.3929 -0.9289 -0.0055
21951SOL     OW67293   0.836   5.240  10.827 -0.1263 -0.1727  0.0525
21951SOL    HW167294   0.799   5.178  10.764 -0.9152  1.4794 -1.2068
21951SOL    HW267295   0.889   5.299  10.774  1.0399 -0.0675  1.2916
21952SOL     OW67296   5.700   7.865   4.958 -0.8913  0.9175 -0.5276
21952SOL    HW167297   5.793   7.844   4.958 -1.4690 -2.0016 -0.9411
21952SOL    HW267298   5.693   7.942   5.015  1.5548  0.2195  0.8565
21953SOL     OW67299   4.817   5.988   2.378  0.7642  0.2791 -0.2696
21953SOL    HW167300   4.812   5.914   2.440 -0.2577  0.1503 -0.4831
21953SOL    HW267301   4.798   5.949   2.293  1.0900  0.6461 -0.5140
21954SOL     OW67302   2.299   7.103  12.064 -0.0300 -0.4972  0.0360
21954SOL    HW167303   2.275   7.188  12.101 -1.5268 -1.1238  0.5739
21954SOL    HW267304   2.231   7.085  11.999  0.7827 -0.8882 -0.7380
21955SOL     OW67305   5.652   3.740   9.545 -0.1092 -0.9780 -0.1683
21955SOL    HW167306   5.696   3.746   9.460 -0.1399 -0.3907 -0.1510
21955SOL    HW267307   5.686   3.660   9.585  0.1819 -1.0631 -0.5832
21956SOL     OW67308   2.246   4.498   3.487  0.5877  0.1167  0.2534
21956SOL    HW167309   2.209   4.416   3.520  0.6937 -0.7209 -1.5796
21956SOL    HW267310   2.174   4.561   3.492 -0.2544 -0.7515 -0.6247
21957SOL     OW67311   0.457   7.338   2.055  0.1882  0.3024 -0.3828
21957SOL    HW167312   0.527   7.274   2.072 -0.0610 -0.3432 -1.6849
21957SOL    HW267313   0.455   7.347   1.960 -1.1412  0.7263 -0.3320
21958SOL     OW67314   7.893   3.138   3.210 -0.2347  0.2527  0.6750
21958SOL    HW167315   7.834   3.212   3.201  0.5730  0.7772 -0.6507
21958SOL    HW267316   7.979   3.173   3.186  0.0812 -1.2156 -0.4730
21959SOL     OW67317   5.870   2.762   5.413 -0.5630 -0.0635  0.0267
21959SOL    HW167318   5.926   2.790   5.485 -1.6692  0.1623  0.8423
21959SOL    HW267319   5.792   2.726   5.456  0.1466 -3.0491 -1.0101
21960SOL     OW67320   2.803   3.355   4.293 -0.1917  0.3749  0.3169
21960SOL    HW167321   2.840   3.417   4.355  0.3913  0.6269 -0.2704
21960SOL    HW267322   2.871   3.289   4.281  1.6611  2.5946 -3.3606
21961SOL     OW67323   2.938   4.509   2.864  0.6559  0.2652 -0.1639
21961SOL    HW167324   2.989   4.589   2.877  3.8045 -1.3124 -1.5407
21961SOL    HW267325   2.854   4.539   2.829  0.9851  2.9997  1.1319
21962SOL     OW67326   6.747   3.358  10.673 -1.0744 -0.7583 -1.0436
21962SOL    HW167327   6.842   3.365  10.660 -1.0661  1.2270 -0.1427
21962SOL    HW267328   6.712   3.356  10.584 -0.3059  0.6026 -1.3999
21963SOL     OW67329   2.482   4.500  10.618 -0.3364 -0.6559 -0.3227
21963SOL    HW167330   2.571   4.476  10.593 -0.5488 -0.5486 -1.2138
21963SOL    HW267331   2.427   4.431  10.580 -0.7282 -0.1248 -0.7278
21964SOL     OW67332   3.583   6.796   7.221 -0.4000  0.3348  0.4180
21964SOL    HW167333   3.511   6.857   7.209 -1.8012 -1.0157  1.5937
21964SOL    HW267334   3.567   6.727   7.157 -1.2599 -0.9136  1.9131
21965SOL     OW67335   0.467   2.551   6.410  0.4023 -0.9467  0.2007
21965SOL    HW167336   0.522   2.622   6.444  1.8682 -1.9399  0.0253
21965SOL    HW267337   0.458   2.570   6.317  0.4030 -0.7459  0.2421
21966SOL     OW67338   0.469   2.675   5.932 -0.5825 -0.1570  0.2636
21966SOL    HW167339   0.387   2.675   5.981 -0.2172 -0.6029  0.8929
21966SOL    HW267340   0.531   2.632   5.991  0.3426  1.0535  0.2064
21967SOL     OW67341   5.141   3.194  10.202  0.5059  0.6617  0.1248
21967SOL    HW167342   5.055   3.159  10.226  0.9541  0.1333  0.9833
21967SOL    HW267343   5.147   3.179  10.107  0.2897 -0.7146  0.3102
21968SOL     OW67344   1.241   7.413   7.917 -0.2792  0.1871 -0.3743
21968SOL    HW167345   1.260   7.369   8.000  0.9443 -0.9155 -1.1877
21968SOL    HW267346   1.197   7.346   7.864 -0.5331  0.6947 -0.8108
21969SOL     OW67347   3.060   7.492  10.456 -0.1342  0.4172  0.1848
21969SOL    HW167348   3.069   7.399  10.477 -1.6125  0.1452 -0.2539
21969SOL    HW267349   3.148   7.528  10.469  0.6001 -1.1360 -0.1680
21970SOL     OW67350   2.363   2.558   0.000  0.0187 -0.0362  0.2319
21970SOL    HW167351   2.279   2.564   0.046 -0.3922 -1.3378 -0.2931
21970SOL    HW267352   2.420   2.510   0.060  0.1616  0.2047  0.2882
21971SOL     OW67353   3.392   5.780   5.063  0.0268  0.1969 -0.4332
21971SOL    HW167354   3.458   5.718   5.034 -0.5006  0.6680 -2.8922
21971SOL    HW267355   3.427   5.866   5.039  0.2101  0.8395  1.8266
21972SOL     OW67356   0.797   2.886   7.007 -0.3627 -0.3571 -0.2220
21972SOL    HW167357   0.773   2.806   7.054 -0.1870 -1.4114 -1.8436
21972SOL    HW267358   0.785   2.864   6.914  1.4867  0.8805 -0.8089
21973SOL     OW67359   0.133   1.562  12.332 -0.4401 -0.6809  0.3584
21973SOL    HW167360   0.043   1.593  12.325 -0.5421 -0.7787  1.1219
21973SOL    HW267361   0.147   1.551  12.426  1.2596  2.0555  0.5585
21974SOL     OW67362   5.251   6.578  11.119 -0.1601 -0.5644  0.3412
21974SOL    HW167363   5.196   6.587  11.198 -0.5754 -1.8552  0.2311
21974SOL    HW267364   5.189   6.557  11.050 -0.0749  2.6145 -0.8671
21975SOL     OW67365   6.592   4.120   8.687  0.5095  0.1110  0.0429
21975SOL    HW167366   6.521   4.078   8.640 -0.1068  1.7332 -0.5322
21975SOL    HW267367   6.649   4.156   8.619  0.8960  0.4141  0.5144
21976SOL     OW67368   0.491   6.613   6.074 -0.4431  0.3248  0.2269
21976SOL    HW167369   0.536   6.648   6.152 -2.0822  0.4125  1.1822
21976SOL    HW267370   0.463   6.526   6.100  2.4508 -1.3395 -1.6980
21977SOL     OW67371   1.083   4.318   7.590  0.4108  0.6315 -0.1736
21977SOL    HW167372   1.042   4.322   7.676  2.4388 -0.6534  0.9328
21977SOL    HW267373   1.159   4.261   7.602  0.3145 -0.2518 -3.0203
21978SOL     OW67374   5.149   2.338   1.059  0.3287 -0.6845  0.1946
21978SOL    HW167375   5.125   2.370   1.146  1.8255  3.1334 -0.5878
21978SOL    HW267376   5.242   2.355   1.052  0.6894 -2.8903 -1.4974
21979SOL     OW67377   3.981   2.259  11.978 -0.6089 -0.6899  0.1773
21979SOL    HW167378   3.939   2.344  11.969  1.5232  0.5911  1.4562
21979SOL    HW267379   4.024   2.244  11.893 -0.2323 -0.0239  0.2407
21980SOL     OW67380   5.838   3.744   7.505 -0.1906 -0.7314 -0.2030
21980SOL    HW167381   5.783   3.732   7.428  0.0356 -1.8585 -0.2069
21980SOL    HW267382   5.786   3.710   7.577 -0.9053  1.4336  0.3838
21981SOL     OW67383   5.105   0.858   1.880  0.3949  0.3299 -0.0306
21981SOL    HW167384   5.194   0.829   1.861  0.2824  1.3213 -2.4143
21981SOL    HW267385   5.057   0.777   1.898  1.5140 -0.3217  0.1289
21982SOL     OW67386   1.965   2.346   7.925  0.2143 -0.6008  0.5215
21982SOL    HW167387   1.985   2.403   7.852 -3.3387  1.1312  0.7256
21982SOL    HW267388   1.973   2.402   8.003  0.0167 -1.3168  1.0735
21983SOL     OW67389   2.569   7.362  11.725  0.0533 -0.6424  0.0570
21983SOL    HW167390   2.523   7.434  11.769 -0.2460 -1.2980  0.8436
21983SOL    HW267391   2.500   7.315  11.678  0.5784  1.0001 -2.5610
21984SOL     OW67392   2.911   6.488   8.645  0.0237  0.0122  0.5591
21984SOL    HW167393   2.988   6.457   8.692  1.0330  2.6306  0.7941
21984SOL    HW267394   2.840   6.485   8.709  0.7398  0.7800  1.4132
21985SOL     OW67395   7.398   6.099   2.928  0.1600 -0.0084  0.0238
21985SOL    HW167396   7.429   6.039   2.995  0.6351 -0.8089 -0.8883
21985SOL    HW267397   7.469   6.163   2.919 -0.0944  0.3567  0.5845
21986SOL     OW67398   4.358   3.619   5.516  0.5433  0.2404 -0.3511
21986SOL    HW167399   4.309   3.587   5.593  0.4336  1.7701  0.2447
21986SOL    HW267400   4.322   3.569   5.443 -1.0335  0.4148  0.2602
21987SOL     OW67401   2.925   7.299   9.334  0.0987  0.2247 -0.1810
21987SOL    HW167402   2.903   7.364   9.267  0.8689  0.5620 -0.1142
21987SOL    HW267403   2.848   7.243   9.339  0.4014 -0.4240 -2.0764
21988SOL     OW67404   2.593   7.378   3.020 -0.3880  0.2353  0.3751
21988SOL    HW167405   2.532   7.450   3.011 -2.2352 -1.2579  0.2547
21988SOL    HW267406   2.594   7.336   2.933 -0.0298 -0.4040  0.6744
21989SOL     OW67407   3.489   5.139   8.651  0.0908 -0.4678  0.3943
21989SOL    HW167408   3.520   5.224   8.682  0.4502  0.1301 -1.4868
21989SOL    HW267409   3.453   5.097   8.729 -0.2599  1.4646  1.3388
21990SOL     OW67410   1.902   5.223   3.045  0.2920 -1.1576 -0.5359
21990SOL    HW167411   1.864   5.256   3.127 -0.2038 -0.4893 -1.0250
21990SOL    HW267412   1.983   5.180   3.073  0.4688 -0.3632  0.2430
21991SOL     OW67413   0.421   2.506  10.805  1.0396 -0.1128  0.0537
21991SOL    HW167414   0.351   2.518  10.741  0.5354  0.1872  0.6489
21991SOL    HW267415   0.392   2.556  10.881  1.8459 -0.0918  0.3521
21992SOL     OW67416   5.176   4.505   7.293 -0.1583  0.1882 -0.1911
21992SOL    HW167417   5.209   4.529   7.379  2.1391  0.1826 -1.0085
21992SOL    HW267418   5.221   4.423   7.272 -1.1305 -0.1256 -1.1868
21993SOL     OW67419   6.471   3.705   7.582 -0.0209 -0.1662 -0.3099
21993SOL    HW167420   6.380   3.694   7.553  0.3624 -0.3968 -1.4467
21993SOL    HW267421   6.491   3.625   7.630 -0.4817 -0.0282  0.1171
21994SOL     OW67422   4.676   5.828   7.237  0.6569 -0.1202 -0.5904
21994SOL    HW167423   4.724   5.891   7.291  0.0782  1.0877 -1.4436
21994SOL    HW267424   4.705   5.846   7.148 -0.9483  0.2743 -1.0626
21995SOL     OW67425   6.345   2.744  12.205  0.0489 -0.0884  0.8577
21995SOL    HW167426   6.319   2.768  12.294 -1.3560  1.0081  0.2078
21995SOL    HW267427   6.279   2.681  12.178 -1.1841  1.5965 -0.2974
21996SOL     OW67428   0.357   2.995   9.524 -0.1219 -0.3648  0.1581
21996SOL    HW167429   0.280   2.988   9.466  0.9784  1.6811 -1.6881
21996SOL    HW267430   0.354   3.084   9.557 -0.3641 -1.3045  2.9084
21997SOL     OW67431   0.208   7.199  10.952 -0.3832  0.2436  0.3356
21997SOL    HW167432   0.250   7.226  11.033  0.4298 -0.5879  0.2057
21997SOL    HW267433   0.136   7.143  10.980  0.3431 -0.6400  0.4773
21998SOL     OW67434   0.555   7.940   4.918 -0.8552  0.2599 -0.3154
21998SOL    HW167435   0.597   7.959   4.833  1.2530  0.7388  0.7627
21998SOL    HW267436   0.599   7.860   4.948  1.5917  2.3385  2.1800
21999SOL     OW67437   2.402   0.991   8.220  0.4747 -0.1146  0.0302
21999SOL    HW167438   2.466   1.045   8.174  1.4509  0.4440  1.9219
21999SOL    HW267439   2.343   1.054   8.262  0.0426 -0.5802  0.1324
22000SOL     OW67440   5.658   4.263   8.947 -0.7713  0.3856  0.3213
22000SOL    HW167441   5.718   4.315   8.894 -0.5246  2.4165  2.3962
22000SOL    HW267442   5.679   4.172   8.926  1.4020  1.0680 -0.7390
22001SOL     OW67443   3.469   6.874  11.621  0.7131 -0.0286 -0.5997
22001SOL    HW167444   3.461   6.895  11.714 -1.7384 -0.8834 -0.5295
22001SOL    HW267445   3.477   6.960  11.578  0.3251  0.4790  0.3104
22002SOL     OW67446   1.730   5.564   4.679  0.0143  0.6460  0.2230
22002SOL    HW167447   1.820   5.556   4.711  0.9475  2.3165 -1.6668
22002SOL    HW267448   1.683   5.491   4.718  2.3414 -0.6258  0.8129
22003SOL     OW67449   6.174   6.308   3.021 -0.6992  0.1003 -0.3522
22003SOL    HW167450   6.135   6.387   3.060  1.1270  1.2236 -0.6744
22003SOL    HW267451   6.194   6.333   2.931  0.4200 -0.5282 -0.3016
22004SOL     OW67452   3.341   2.354  11.705  0.5530 -0.4149  0.2116
22004SOL    HW167453   3.296   2.342  11.788 -0.0301 -2.5017 -0.3461
22004SOL    HW267454   3.433   2.334  11.724  0.4184 -0.8951  0.3702
22005SOL     OW67455   5.774   2.926   6.455 -0.4866 -0.1303  0.3266
22005SOL    HW167456   5.716   2.865   6.410  0.7383 -2.0653  1.2280
22005SOL    HW267457   5.821   2.972   6.385 -0.5889 -1.0791 -0.3781
22006SOL     OW67458   7.867   7.504   9.447  0.1337 -0.6705 -0.3051
22006SOL    HW167459   7.799   7.569   9.429 -0.1828 -0.6609  0.8473
22006SOL    HW267460   7.819   7.422   9.459  0.2237 -0.5037  1.3430
22007SOL     OW67461   0.728   1.294  11.846  0.4089  0.1832  0.1986
22007SOL    HW167462   0.655   1.311  11.786  0.1428  0.5366  0.6175
22007SOL    HW267463   0.771   1.217  11.809 -1.0679 -0.9572  0.7495
22008SOL     OW67464   3.402   6.957   5.406  0.6716  0.3756  0.3613
22008SOL    HW167465   3.494   6.976   5.387  0.4793  0.7602 -0.1894
22008SOL    HW267466   3.365   6.932   5.322  0.3234 -0.0039  0.6246
22009SOL     OW67467   5.250   6.209   3.789  0.7333 -0.3207  0.2237
22009SOL    HW167468   5.267   6.176   3.701  1.3568  2.8854 -1.0058
22009SOL    HW267469   5.331   6.253   3.815 -0.6848  2.3706  0.5468
22010SOL     OW67470   3.427   6.755   4.761  0.1707  0.0849 -0.3757
22010SOL    HW167471   3.444   6.768   4.667 -0.5536  0.3421 -0.4791
22010SOL    HW267472   3.379   6.833   4.788 -0.3677 -0.3699  0.0107
22011SOL     OW67473   6.761   2.640   5.452 -0.1625  0.4577  0.7339
22011SOL    HW167474   6.698   2.577   5.416 -0.1100 -0.7560  2.6210
22011SOL    HW267475   6.839   2.588   5.471 -0.7965  0.5706  4.1708
22012SOL     OW67476   4.538   6.352   4.627 -0.0251  0.4243  0.0339
22012SOL    HW167477   4.459   6.303   4.648  0.4716 -0.2677  0.3175
22012SOL    HW267478   4.563   6.322   4.539  0.6459 -0.3313  0.4736
22013SOL     OW67479   1.548   7.247   6.867 -0.0466  0.2914  0.0741
22013SOL    HW167480   1.495   7.313   6.912  1.7408  1.2475  0.8663
22013SOL    HW267481   1.625   7.294   6.836 -0.2720 -0.7491 -2.3484
22014SOL     OW67482   7.839   3.128   9.993  0.4904  0.2678  0.0325
22014SOL    HW167483   7.767   3.080   9.953  0.6342  0.7853 -0.8782
22014SOL    HW267484   7.797   3.206  10.031  0.4881  0.2601  0.0460
22015SOL     OW67485   4.609   7.326   8.678 -0.3575 -0.4332 -0.4109
22015SOL    HW167486   4.704   7.316   8.663 -0.5009 -0.3929 -1.4461
22015SOL    HW267487   4.570   7.308   8.592 -1.3604 -1.4495  0.2371
22016SOL     OW67488   4.253   3.902   9.252  0.2366 -0.0768 -0.0321
22016SOL    HW167489   4.255   3.889   9.347  0.3859 -1.3108 -0.1886
22016SOL    HW267490   4.171   3.860   9.224  2.0860 -3.4370 -0.9014
22017SOL     OW67491   2.714   7.145   9.713  0.0724  0.3060 -0.2742
22017SOL    HW167492   2.807   7.167   9.715  0.6348 -1.3541 -2.8413
22017SOL    HW267493   2.705   7.071   9.773  0.8958 -0.8368 -1.4925
22018SOL     OW67494   0.354   4.827   9.677 -0.0084 -0.1146 -0.1754
22018SOL    HW167495   0.290   4.827   9.606  0.6826  1.4499 -0.8514
22018SOL    HW267496   0.315   4.883   9.744 -1.2782 -2.6609  1.3507
22019SOL     OW67497   3.348   7.060   6.091 -0.1700 -0.1096  0.3960
22019SOL    HW167498   3.348   7.008   6.010  1.4379 -0.4640  0.5797
22019SOL    HW267499   3.322   7.148   6.063 -1.2603 -0.6060 -0.2117
22020SOL     OW67500   3.196   5.323   5.547 -0.4820 -0.2862  0.4654
22020SOL    HW167501   3.171   5.406   5.505  1.0022 -0.2939 -0.4848
22020SOL    HW267502   3.128   5.309   5.612 -2.4046  0.2078 -1.3018
22021SOL     OW67503   0.535   1.007   4.515  0.5117 -0.1153  0.0211
22021SOL    HW167504   0.489   1.091   4.516  3.3398  1.5616  1.2911
22021SOL    HW267505   0.583   1.006   4.431  0.3942 -0.5376 -0.0466
22022SOL     OW67506   0.321   4.667   1.485  0.3867 -0.4151  0.2125
22022SOL    HW167507   0.398   4.723   1.478  0.5984 -0.8340 -1.0108
22022SOL    HW267508   0.257   4.720   1.533  1.2972  0.0624  0.9414
22023SOL     OW67509   2.801   6.265   3.596  0.5269 -0.0088  0.4975
22023SOL    HW167510   2.862   6.253   3.523  0.7390 -3.3651  1.0537
22023SOL    HW267511   2.717   6.233   3.563  0.2752 -0.1509  1.2511
22024SOL     OW67512   3.215   7.854   5.436  0.2723 -0.1695  0.0770
22024SOL    HW167513   3.161   7.831   5.360  2.0872 -1.2011 -0.9891
22024SOL    HW267514   3.229   7.771   5.481 -2.5050  0.6984  2.8802
22025SOL     OW67515   2.141   4.533   8.494  0.0940 -0.0495  1.1911
22025SOL    HW167516   2.178   4.616   8.463 -0.0470  0.0381  1.2578
22025SOL    HW267517   2.164   4.469   8.426 -0.7053  0.2562  0.6145
22026SOL     OW67518   6.507   6.278   5.637  0.2735 -0.1638  0.1237
22026SOL    HW167519   6.593   6.235   5.631  1.1504  1.3260  1.2038
22026SOL    HW267520   6.444   6.209   5.615  1.6390 -1.8496  1.2264
22027SOL     OW67521   7.484   5.526   8.172  0.7736  0.0660 -0.0111
22027SOL    HW167522   7.559   5.562   8.125 -0.9025  1.5334 -1.7233
22027SOL    HW267523   7.474   5.437   8.140  2.5333 -0.6456  1.2503
22028SOL     OW67524   7.515   3.112   5.279 -0.3115  0.3748  0.5085
22028SOL    HW167525   7.483   3.057   5.208  0.8834  0.4600 -0.1153
22028SOL    HW267526   7.436   3.150   5.318 -1.0008  0.0014 -0.4970
22029SOL     OW67527   6.386   6.988   3.283  0.7945 -0.2813 -0.1141
22029SOL    HW167528   6.368   7.017   3.194 -0.1998  2.3080  0.8472
22029SOL    HW267529   6.340   6.904   3.290  2.1566 -1.3382 -2.4168
22030SOL     OW67530   5.107   3.196   7.359 -0.0077  0.5931  0.2541
22030SOL    HW167531   5.195   3.199   7.396 -0.3041  3.9272  1.0237
22030SOL    HW267532   5.049   3.208   7.435 -0.8787  2.0969 -0.5963
22031SOL     OW67533   6.651   2.293   1.907 -0.7354  0.1573  0.6297
22031SOL    HW167534   6.556   2.294   1.922 -0.9208  1.7756 -0.4592
22031SOL    HW267535   6.688   2.308   1.994 -1.4832 -0.0911  1.0076
22032SOL     OW67536   5.846   0.590   4.693 -0.1199  0.1956  0.0185
22032SOL    HW167537   5.797   0.658   4.647 -0.3040  0.6071  0.7970
22032SOL    HW267538   5.935   0.597   4.659  0.3494  2.1718  1.4606
22033SOL     OW67539   0.483   3.259   4.214  0.1203 -0.1700  0.1737
22033SOL    HW167540   0.571   3.222   4.208  0.2916  0.2561  0.0039
22033SOL    HW267541   0.441   3.211   4.285  0.5945 -0.1573  0.4624
22034SOL     OW67542   2.233   4.564   6.558 -0.1223  0.1921 -0.3139
22034SOL    HW167543   2.250   4.538   6.468  0.5715 -0.1931 -0.0765
22034SOL    HW267544   2.169   4.635   6.551  0.2081  0.4138 -1.1203
22035SOL     OW67545   6.405   5.283   6.870  0.3125 -0.0955 -0.0179
22035SOL    HW167546   6.331   5.324   6.914 -0.0769 -0.5221 -0.2687
22035SOL    HW267547   6.474   5.280   6.937 -0.0204 -0.0312  0.3274
22036SOL     OW67548   2.859   5.426   3.149  0.1500  0.0330 -0.6301
22036SOL    HW167549   2.900   5.505   3.185 -2.0184 -0.4192  3.5019
22036SOL    HW267550   2.916   5.354   3.178 -0.2977 -0.1622 -0.1975
22037SOL     OW67551   0.403   3.837   9.005  0.4813  0.3264  0.2684
22037SOL    HW167552   0.359   3.754   8.987  1.0830  0.1888 -0.6599
22037SOL    HW267553   0.493   3.824   8.973  0.4213  1.5339 -0.4492
22038SOL     OW67554   5.001   6.626   5.320 -0.1315  0.4042 -0.3376
22038SOL    HW167555   5.032   6.561   5.256  0.4190  1.0119 -0.6984
22038SOL    HW267556   4.915   6.653   5.288 -0.2581  0.0290 -0.3157
22039SOL     OW67557   1.079   5.693  12.321  0.2004 -0.0148  0.0400
22039SOL    HW167558   1.028   5.725  12.247  1.2386  1.2433 -0.1757
22039SOL    HW267559   1.161   5.661  12.281 -0.9094 -3.4711  0.1807
22040SOL     OW67560   4.977   3.603   3.163  0.6769  1.0091 -0.4447
22040SOL    HW167561   5.014   3.587   3.076  2.5936  1.5941  0.1941
22040SOL    HW267562   4.887   3.572   3.158  1.5026 -1.4384 -1.8583
22041SOL     OW67563   4.010   0.746   7.188  0.1048 -0.1333 -0.5927
22041SOL    HW167564   4.020   0.833   7.148  3.8971  0.4713  1.2030
22041SOL    HW267565   4.045   0.686   7.122  1.8777  0.3275 -0.1339
22042SOL     OW67566   4.177   0.727   7.549 -0.1952 -0.4895 -0.5176
22042SOL    HW167567   4.123   0.651   7.528 -0.4151 -0.5599  0.2908
22042SOL    HW267568   4.196   0.719   7.642  0.4760  0.0065 -0.6061
22043SOL     OW67569   0.548   2.806  12.201 -0.0228 -0.1359 -0.3129
22043SOL    HW167570   0.468   2.859  12.203 -0.0725 -0.2073 -0.3995
22043SOL    HW267571   0.539   2.752  12.123 -0.9679 -1.8346  0.9025
22044SOL     OW67572   4.962   7.657  11.246  0.0853  0.5310  0.4913
22044SOL    HW167573   4.924   7.697  11.167 -0.1381 -0.4615  0.0807
22044SOL    HW267574   5.042   7.614  11.216  1.5362  2.4747  1.3265
22045SOL     OW67575   6.241   4.200   0.007 -0.0041 -0.4187  0.0508
22045SOL    HW167576   6.259   4.113   0.043  1.6288 -0.2886 -0.3814
22045SOL    HW267577   6.173   4.236   0.064 -1.3013 -2.2612 -0.2335
22046SOL     OW67578   1.587   2.580  11.222  0.1840 -0.4981 -0.1515
22046SOL    HW167579   1.508   2.578  11.167 -0.4194 -1.0588  0.7136
22046SOL    HW267580   1.605   2.488  11.241  1.1692 -0.3854 -0.4845
22047SOL     OW67581   6.073   3.207  10.024  0.0085  0.3699  0.3317
22047SOL    HW167582   6.046   3.200   9.932  0.0275  1.3999  0.2363
22047SOL    HW267583   6.160   3.245  10.021 -0.6830  2.0844  0.8159
22048SOL     OW67584   7.758   6.373   8.719 -0.0316  0.0644 -0.1164
22048SOL    HW167585   7.781   6.280   8.719 -1.4011 -0.3117 -0.7466
22048SOL    HW267586   7.729   6.391   8.808  0.5622 -0.0270  0.0944
22049SOL     OW67587   3.043   4.641   0.126 -0.1132 -0.2738  0.3057
22049SOL    HW167588   3.075   4.731   0.125 -0.1782 -0.2509  0.1144
22049SOL    HW267589   3.075   4.603   0.044 -1.0531 -0.0720 -0.1674
22050SOL     OW67590   0.392   4.715   9.364 -0.4812 -0.1402 -0.6060
22050SOL    HW167591   0.313   4.716   9.310 -0.9885 -0.9529  0.1071
22050SOL    HW267592   0.395   4.627   9.402 -1.8662  1.2723  3.2029
22051SOL     OW67593   6.634   2.223   9.604 -0.1370  0.0328  0.4630
22051SOL    HW167594   6.671   2.255   9.686 -0.7386  0.4074  0.5962
22051SOL    HW267595   6.612   2.302   9.555  2.7873 -0.1051 -1.3039
22052SOL     OW67596   3.929   5.479  10.468 -0.2113 -0.5588 -0.6624
22052SOL    HW167597   3.873   5.486  10.545  0.5219 -0.5901 -0.1105
22052SOL    HW267598   3.879   5.425  10.407  0.5436 -3.5457  1.1112
22053SOL     OW67599   5.620   5.560   9.667 -0.1252  0.2510  0.3615
22053SOL    HW167600   5.622   5.486   9.606 -1.4049  0.3881  0.1230
22053SOL    HW267601   5.673   5.532   9.742  0.6146 -0.3169 -0.3645
22054SOL     OW67602   4.940   3.569  10.611 -0.4841 -0.0831 -0.1213
22054SOL    HW167603   4.923   3.650  10.660  1.7545 -0.4617  1.4012
22054SOL    HW267604   4.918   3.591  10.520 -0.0187  2.2077  0.2678
22055SOL     OW67605   5.379   4.673   8.523 -0.0009 -0.0282 -0.0723
22055SOL    HW167606   5.431   4.752   8.509  2.7722 -1.8430 -0.8229
22055SOL    HW267607   5.306   4.680   8.462  0.3943  1.7543 -0.3853
22056SOL     OW67608   4.299   2.605   4.989 -0.3927  0.6638 -0.6721
22056SOL    HW167609   4.236   2.617   4.917 -1.0199  0.7933 -0.1165
22056SOL    HW267610   4.296   2.512   5.008 -1.1428  0.8174 -0.0088
22057SOL     OW67611   7.563   2.965   0.716  0.1935 -0.9367 -0.5322
22057SOL    HW167612   7.530   2.911   0.788  2.1386 -0.9852  0.4034
22057SOL    HW267613   7.636   3.013   0.755 -0.3471  1.0336 -1.8213
22058SOL     OW67614   3.073   1.686   0.323 -0.0772 -0.6553  0.2089
22058SOL    HW167615   3.086   1.775   0.289 -0.5876  0.6899  3.1844
22058SOL    HW267616   3.020   1.642   0.256  1.9329  0.5253 -2.3229
22059SOL     OW67617   1.645   2.147   8.766 -0.0641 -0.7795  0.1514
22059SOL    HW167618   1.552   2.156   8.747  0.0721 -0.7208 -0.4853
22059SOL    HW267619   1.653   2.057   8.801 -0.1930 -1.1746 -0.8142
22060SOL     OW67620   6.004   5.769  10.009 -0.6368  0.1386  0.5951
22060SOL    HW167621   6.000   5.749  10.102  0.0562  1.6041  0.9618
22060SOL    HW267622   5.930   5.828   9.993  0.1981  1.2100  0.5860
22061SOL     OW67623   3.673   6.332  12.109 -0.0640 -0.3897  0.8240
22061SOL    HW167624   3.727   6.263  12.071  0.2765  1.5971 -2.7567
22061SOL    HW267625   3.584   6.298  12.104  0.2448 -1.2156  0.7180
22062SOL     OW67626   3.278   2.463   3.344  0.2639  0.1400 -0.2516
22062SOL    HW167627   3.232   2.471   3.261 -0.1021 -0.2221 -0.0934
22062SOL    HW267628   3.208   2.451   3.409  0.5742 -0.2840  0.0125
22063SOL     OW67629   0.732   7.932   1.515 -0.4168 -0.0527  0.1395
22063SOL    HW167630   0.682   7.929   1.434 -2.6224 -3.3105  1.3834
22063SOL    HW267631   0.788   7.855   1.512  0.0155  0.1763  1.3906
22064SOL     OW67632   7.702   6.212   9.778 -0.1802 -0.0484 -0.4039
22064SOL    HW167633   7.779   6.155   9.780 -0.6213 -0.6837  1.9533
22064SOL    HW267634   7.738   6.301   9.778  0.5362 -0.3296 -0.5085
22065SOL     OW67635   0.700   1.603   5.201  0.4341 -0.2495  0.1864
22065SOL    HW167636   0.643   1.661   5.150 -0.0224 -0.2610  0.6733
22065SOL    HW267637   0.783   1.650   5.205  0.3523 -0.0561 -0.2101
22066SOL     OW67638   4.808   6.011   8.762 -0.3579  0.3441 -0.3269
22066SOL    HW167639   4.748   5.942   8.734 -0.7496  0.8009 -0.6345
22066SOL    HW267640   4.776   6.090   8.717  0.7902  0.4876 -0.9248
22067SOL     OW67641   0.723   2.342  11.621  0.9008 -0.1470 -0.3003
22067SOL    HW167642   0.660   2.311  11.556 -1.3690  2.5585  0.4224
22067SOL    HW267643   0.808   2.312  11.588 -0.4642 -1.7241 -2.7050
22068SOL     OW67644   7.339   2.848  10.957 -0.6188 -0.2066 -0.0983
22068SOL    HW167645   7.336   2.880  10.867 -0.4078 -0.7601 -0.3100
22068SOL    HW267646   7.247   2.847  10.985 -0.5927  0.9666  0.0634
22069SOL     OW67647   4.626   2.959   8.105 -0.3425  0.1346  0.1967
22069SOL    HW167648   4.690   2.887   8.103 -0.2618  0.2221 -0.5059
22069SOL    HW267649   4.656   3.019   8.037 -0.9267  0.3938  0.1680
22070SOL     OW67650   1.216   5.449   9.315  0.1162 -0.3319  0.1153
22070SOL    HW167651   1.156   5.375   9.313 -0.1192 -0.1350 -0.4906
22070SOL    HW267652   1.280   5.431   9.246  0.0510  0.0307 -0.0443
22071SOL     OW67653   6.600   7.364   8.656 -0.0523 -0.3660  0.4049
22071SOL    HW167654   6.588   7.294   8.591  0.7855  0.3222 -0.5261
22071SOL    HW267655   6.520   7.416   8.651 -0.7849 -1.3699  1.2737
22072SOL     OW67656   6.929   5.931  11.319 -0.1353 -0.4968 -0.0110
22072SOL    HW167657   6.848   5.924  11.369 -0.0054  0.5494  0.3609
22072SOL    HW267658   6.993   5.880  11.369 -1.0727 -3.4121 -1.5377
22073SOL     OW67659   6.852   1.883   2.634  0.0214 -0.0615 -0.2106
22073SOL    HW167660   6.903   1.830   2.573  0.4643 -0.0356  0.1308
22073SOL    HW267661   6.828   1.961   2.584  0.0555 -0.2158 -0.4663
22074SOL     OW67662   4.874   0.634   6.129 -0.0131  0.3246  0.2575
22074SOL    HW167663   4.835   0.713   6.167  0.8546  0.7756  0.2388
22074SOL    HW267664   4.852   0.564   6.190  0.9554  0.9510  1.3771
22075SOL     OW67665   1.361   7.384   0.329  0.1622 -0.1880  0.1880
22075SOL    HW167666   1.270   7.356   0.331  0.4524 -1.1781  0.7999
22075SOL    HW267667   1.364   7.453   0.263 -1.1299  0.2756  0.5850
22076SOL     OW67668   1.860   4.269  11.405 -0.4205  0.4550  0.5623
22076SOL    HW167669   1.797   4.274  11.477  1.3712  0.5659  2.1987
22076SOL    HW267670   1.941   4.242  11.446  1.0443  1.9118 -1.2095
22077SOL     OW67671   3.272   6.618   6.634 -0.2331 -0.0590  0.3911
22077SOL    HW167672   3.311   6.688   6.687  0.4884  0.9725 -1.4250
22077SOL    HW267673   3.332   6.545   6.645  0.4312  0.4542  0.2541
22078SOL     OW67674   5.879   2.565   9.424 -0.5060  0.3730 -0.2876
22078SOL    HW167675   5.800   2.523   9.390  0.8573 -0.7222 -2.3060
22078SOL    HW267676   5.903   2.513   9.501 -0.5372 -0.6674 -0.9680
22079SOL     OW67677   4.305   5.977  11.107  0.1132 -0.2791  1.1624
22079SOL    HW167678   4.327   6.020  11.025 -0.1907 -0.6059  0.9083
22079SOL    HW267679   4.380   5.921  11.126 -0.0419 -0.6076  0.8284
22080SOL     OW67680   5.028   4.829   4.652  0.2091 -0.4115  0.4425
22080SOL    HW167681   4.970   4.838   4.728 -0.5734  1.0943 -0.2808
22080SOL    HW267682   5.013   4.909   4.602  2.8415 -0.0172  0.1471
22081SOL     OW67683   4.690   6.396   5.717  0.3328 -0.0026  0.0481
22081SOL    HW167684   4.759   6.463   5.718  1.4982 -1.1522 -0.4666
22081SOL    HW267685   4.700   6.353   5.632 -0.1685 -1.0554  0.5034
22082SOL     OW67686   1.798   0.593   9.617  0.1864  0.2415  0.0671
22082SOL    HW167687   1.749   0.669   9.651  0.2225 -0.3666  1.5335
22082SOL    HW267688   1.746   0.563   9.543 -1.4334 -0.0826  1.2817
22083SOL     OW67689   3.893   5.766   7.125  0.2167  0.0070 -0.2164
22083SOL    HW167690   3.894   5.681   7.082  1.0564 -1.3568  2.2486
22083SOL    HW267691   3.975   5.768   7.174 -0.0047  2.0561  0.1310
22084SOL     OW67692   7.171   7.936   3.897  0.3625 -0.3160  0.1399
22084SOL    HW167693   7.102   7.957   3.834  2.0347 -0.7965 -1.9961
22084SOL    HW267694   7.210   7.855   3.864  2.2635  0.1983  0.9706
22085SOL     OW67695   2.839   5.663   5.440 -0.1721  0.3462  0.2218
22085SOL    HW167696   2.800   5.649   5.354  0.7073 -1.0227 -0.0022
22085SOL    HW267697   2.830   5.757   5.456  0.2853  0.7741 -1.7019
22086SOL     OW67698   5.768   5.108  11.013  0.1510 -0.2987  0.0688
22086SOL    HW167699   5.861   5.107  11.033  0.0068 -0.3165  0.7454
22086SOL    HW267700   5.729   5.166  11.079 -0.6061 -1.9381  1.1068
22087SOL     OW67701   6.155   3.076   7.545 -0.1191  0.1731 -0.1954
22087SOL    HW167702   6.159   3.166   7.514  0.7902  0.6458  1.2214
22087SOL    HW267703   6.215   3.073   7.619 -1.8269 -1.0272  1.2278
22088SOL     OW67704   3.444   0.772   8.902  0.2048  0.1646 -0.0857
22088SOL    HW167705   3.491   0.766   8.819 -1.1598  0.6688 -0.9193
22088SOL    HW267706   3.495   0.717   8.962  1.0491 -0.4522 -1.3263
22089SOL     OW67707   4.942   6.242   9.428  0.2574  0.0690  0.3992
22089SOL    HW167708   4.892   6.315   9.466 -0.8239 -0.2879 -0.2855
22089SOL    HW267709   4.875   6.184   9.392  1.1872 -0.4266 -0.5653
22090SOL     OW67710   6.833   5.467   9.755 -0.3438  0.3967  0.1573
22090SOL    HW167711   6.740   5.453   9.767 -0.6185  0.8000 -1.2988
22090SOL    HW267712   6.868   5.381   9.733 -0.3434  0.2219  0.8290
22091SOL     OW67713   7.902   3.096   7.173  0.4587  0.1496 -0.6073
22091SOL    HW167714   7.988   3.133   7.158  0.8235  0.3129  1.5364
22091SOL    HW267715   7.903   3.070   7.265 -1.4899 -0.6394 -0.7582
22092SOL     OW67716   5.541   5.786   1.068  0.5030  0.1966 -0.6428
22092SOL    HW167717   5.503   5.847   1.131 -0.0162 -1.0272  0.2761
22092SOL    HW267718   5.470   5.769   1.006 -0.2782 -1.5198  0.6523
22093SOL     OW67719   3.335   2.039   6.341 -0.5093  0.8182  0.1943
22093SOL    HW167720   3.279   2.033   6.418 -0.0042 -1.0109  0.4688
22093SOL    HW267721   3.423   2.054   6.376  0.1926 -2.6161  0.2709
22094SOL     OW67722   7.119   3.381   2.054 -0.0464 -0.1101  0.1290
22094SOL    HW167723   7.042   3.326   2.065 -0.4475  0.4441  0.1199
22094SOL    HW267724   7.129   3.424   2.139 -0.1542  0.3372 -0.0828
22095SOL     OW67725   3.974   4.175   2.634  0.2478  0.4529 -0.0532
22095SOL    HW167726   4.039   4.243   2.649  0.8319  0.1156 -0.9777
22095SOL    HW267727   3.964   4.172   2.539 -2.9403  2.1929  0.0696
22096SOL     OW67728   5.562   1.431   4.275 -0.2593  0.1629  0.4346
22096SOL    HW167729   5.572   1.488   4.350 -0.2973 -0.0298  0.5873
22096SOL    HW267730   5.531   1.488   4.205 -1.4095  0.1261  0.8880
22097SOL     OW67731   0.453   4.014  10.491 -0.1919  0.1356  0.1117
22097SOL    HW167732   0.453   4.030  10.585 -0.0087  1.3448 -0.0814
22097SOL    HW267733   0.422   3.924  10.482  1.0186 -0.4396  1.3845
22098SOL     OW67734   3.846   5.453   9.265 -0.7171 -0.1908 -0.2504
22098SOL    HW167735   3.798   5.430   9.185 -0.2506 -1.7215 -0.1196
22098SOL    HW267736   3.937   5.462   9.237 -0.7854  0.9521 -0.1727
22099SOL     OW67737   7.835   4.932   0.463 -0.1381  0.0797 -0.2446
22099SOL    HW167738   7.768   4.973   0.409  3.3268  4.0003 -2.1219
22099SOL    HW267739   7.837   4.985   0.543  0.6923  0.0131 -0.2129
22100SOL     OW67740   2.636   7.915  10.142 -0.1106 -0.0729 -0.2813
22100SOL    HW167741   2.645   7.890  10.234  2.7859  0.1021 -0.4225
22100SOL    HW267742   2.612   8.008  10.146  0.2577  0.0076  0.3152
22101SOL     OW67743   7.139   1.659   4.644 -0.1309 -0.6538  0.4068
22101SOL    HW167744   7.214   1.705   4.683  1.3941 -0.8558 -2.0508
22101SOL    HW267745   7.062   1.701   4.682  1.2334  1.0212  1.4476
22102SOL     OW67746   7.804   1.483  12.031 -0.2135  0.3868  0.0995
22102SOL    HW167747   7.865   1.553  12.009 -0.2348  0.2469 -0.4086
22102SOL    HW267748   7.777   1.446  11.947 -1.5550  0.9198  0.2621
22103SOL     OW67749   1.271   4.757   8.693 -0.4675 -0.5147 -0.2350
22103SOL    HW167750   1.196   4.755   8.753 -0.0477 -0.0649  0.3107
22103SOL    HW267751   1.286   4.850   8.676  1.3589 -0.4471  1.4379
22104SOL     OW67752   2.564   2.003   2.437  0.8970  0.1729  0.0632
22104SOL    HW167753   2.548   1.994   2.531  0.1028 -1.2347 -0.1874
22104SOL    HW267754   2.478   1.999   2.397  1.3565 -1.0663 -0.8588
22105SOL     OW67755   0.092   6.110   7.865  0.4471  0.2530 -0.3946
22105SOL    HW167756   0.161   6.129   7.802 -0.4280 -0.8332 -1.7380
22105SOL    HW267757   0.087   6.014   7.868 -1.4323  0.2969 -0.8529
22106SOL     OW67758   2.942   1.124   0.534 -0.3327  0.2580 -0.0448
22106SOL    HW167759   2.872   1.176   0.573 -0.8361  0.3676 -1.0551
22106SOL    HW267760   3.017   1.183   0.532 -0.7680  0.8184 -0.7416
22107SOL     OW67761   4.650   0.303  10.753  0.6893  0.9227  0.3878
22107SOL    HW167762   4.578   0.351  10.795  0.1135  0.6511 -0.2626
22107SOL    HW267763   4.701   0.371  10.709  0.7979  1.1121  0.8061
22108SOL     OW67764   1.454   3.949   2.934 -0.0084 -0.0843  0.3924
22108SOL    HW167765   1.365   3.913   2.931 -0.0178 -0.0136 -1.6094
22108SOL    HW267766   1.507   3.877   2.967 -0.5463 -0.7773 -0.2155
22109SOL     OW67767   7.515   1.858   4.507  0.3034 -0.1422  0.4627
22109SOL    HW167768   7.429   1.896   4.489  0.0765 -1.5340 -1.7504
22109SOL    HW267769   7.525   1.789   4.441  1.9634 -1.8502  2.3646
22110SOL     OW67770   3.466   1.339   1.985 -0.4132  0.1614 -0.2187
22110SOL    HW167771   3.492   1.256   1.944 -0.5254  0.2091 -0.3875
22110SOL    HW267772   3.460   1.400   1.912 -0.3821  0.3065 -0.1001
22111SOL     OW67773   3.789   4.818   0.548  0.8127  0.3907 -0.4141
22111SOL    HW167774   3.830   4.796   0.632  2.2974  1.9103 -0.6752
22111SOL    HW267775   3.861   4.811   0.485  0.6964  2.9818 -0.9288
22112SOL     OW67776   0.133   7.041  12.089  0.4112 -0.4555 -0.0613
22112SOL    HW167777   0.078   7.077  12.158 -0.3245  1.2970 -1.4602
22112SOL    HW267778   0.084   6.965  12.056 -0.9101  0.6629 -0.8142
22113SOL     OW67779   0.278   4.268   1.973 -0.2376 -0.0113  0.0168
22113SOL    HW167780   0.339   4.314   2.032 -1.1115  0.9410  0.1998
22113SOL    HW267781   0.326   4.190   1.947 -0.0166 -0.7705  2.4333
22114SOL     OW67782   0.673   5.034  11.543 -0.3013 -0.1730  0.1163
22114SOL    HW167783   0.667   5.127  11.520 -1.3543 -0.4777 -0.9054
22114SOL    HW267784   0.636   5.029  11.632  1.0271  0.5609  0.7466
22115SOL     OW67785   5.780   0.065   8.842 -0.0007 -0.3342 -0.0586
22115SOL    HW167786   5.779   0.107   8.928  0.1432 -0.2896 -0.0782
22115SOL    HW267787   5.742  -0.022   8.857  1.4419 -0.9230  0.3567
22116SOL     OW67788   0.122   7.232   1.863 -0.1319  0.2920  0.0401
22116SOL    HW167789   0.063   7.221   1.789  0.4952 -0.2745 -0.3862
22116SOL    HW267790   0.123   7.326   1.880  0.0930  0.4750 -0.9696
22117SOL     OW67791   2.158   4.962  11.869 -0.2326 -0.1856 -0.1678
22117SOL    HW167792   2.081   4.960  11.926  1.0697 -0.9307  1.6488
22117SOL    HW267793   2.155   4.879  11.821 -1.2203  0.3523 -1.0809
22118SOL     OW67794   7.244   5.219   7.682 -0.0508  0.3530 -0.1907
22118SOL    HW167795   7.252   5.227   7.587  0.6874 -1.7746 -0.3671
22118SOL    HW267796   7.303   5.286   7.718 -0.6125  1.4173 -1.1909
22119SOL     OW67797   0.253   5.241   4.664 -0.1990 -0.2315 -0.2476
22119SOL    HW167798   0.249   5.318   4.720 -0.6264 -1.1772  1.0681
22119SOL    HW267799   0.329   5.192   4.697 -1.4268 -1.6129  0.6471
22120SOL     OW67800   4.315   6.381   9.130 -0.4785  0.7043  0.3832
22120SOL    HW167801   4.312   6.468   9.170 -0.4718  1.0404 -0.3299
22120SOL    HW267802   4.375   6.391   9.055  1.2406 -0.4509  1.5379
22121SOL     OW67803   7.839   5.937   0.700 -0.3738 -0.4271 -0.1870
22121SOL    HW167804   7.861   5.935   0.793  0.1054 -0.8535 -0.3038
22121SOL    HW267805   7.880   5.858   0.664  0.0348  0.0864 -0.8882
22122SOL     OW67806   6.940   0.801  10.137  0.3419 -0.0724  0.2364
22122SOL    HW167807   7.028   0.835  10.152 -0.2322  0.8889  1.6310
22122SOL    HW267808   6.918   0.756  10.218 -0.4056 -0.4288 -0.1587
22123SOL     OW67809   0.757   6.569   1.111  0.2240 -0.2972  0.2904
22123SOL    HW167810   0.673   6.522   1.117  0.4053 -0.5552  0.8699
22123SOL    HW267811   0.733   6.661   1.118  0.1938 -0.4468  3.2111
22124SOL     OW67812   1.381   7.497   2.132 -0.0630  0.2213 -0.1780
22124SOL    HW167813   1.414   7.407   2.127  0.5344  0.3480  1.2111
22124SOL    HW267814   1.297   7.490   2.178  0.0471  0.3894  0.0497
22125SOL     OW67815   1.049   3.148  10.401 -0.0560  0.1360 -1.0234
22125SOL    HW167816   1.037   3.107  10.316  0.4752  0.6017 -1.3262
22125SOL    HW267817   1.072   3.075  10.459  0.2604 -0.0868 -1.4228
22126SOL     OW67818   5.738   1.252   9.622 -0.1823  0.2090 -0.0305
22126SOL    HW167819   5.671   1.301   9.574 -0.0286 -1.1583 -1.7467
22126SOL    HW267820   5.813   1.249   9.561  1.6578  2.0579  1.9728
22127SOL     OW67821   7.712   7.151  10.619  0.3615  0.7622 -0.1792
22127SOL    HW167822   7.639   7.133  10.559  0.1969  0.8281  0.0009
22127SOL    HW267823   7.673   7.202  10.690  0.1680 -0.8034  0.8929
22128SOL     OW67824   7.237   2.190   9.196 -0.1229 -0.0218 -0.4142
22128SOL    HW167825   7.284   2.228   9.271 -0.5978 -0.4580  0.1230
22128SOL    HW267826   7.224   2.098   9.221  0.0416 -0.2601 -1.2010
22129SOL     OW67827   3.885   4.665   3.278  0.6195 -1.2186  0.3596
22129SOL    HW167828   3.889   4.570   3.290  1.4521 -1.1527  0.7172
22129SOL    HW267829   3.970   4.686   3.238  0.5555 -0.5929  0.5551
22130SOL     OW67830   1.158   6.188   4.478 -0.2250  0.3411 -0.6949
22130SOL    HW167831   1.134   6.145   4.561 -0.3226  1.6170 -0.0347
22130SOL    HW267832   1.105   6.144   4.412 -0.1838 -0.6695 -0.0729
22131SOL     OW67833   2.929   1.909  12.026 -0.2492 -1.0894  0.4770
22131SOL    HW167834   2.925   1.853  12.104 -2.7083 -0.9755  0.5128
22131SOL    HW267835   2.952   1.995  12.060 -1.6123 -0.9662  1.1866
22132SOL     OW67836   2.021   3.553   3.515 -0.1551  0.0381  0.0269
22132SOL    HW167837   1.935   3.510   3.511  0.1244 -0.4888 -0.3688
22132SOL    HW267838   2.057   3.544   3.427 -0.2752  1.4946 -0.2015
22133SOL     OW67839   6.121   7.246   7.240 -0.3779  0.0306  0.1543
22133SOL    HW167840   6.062   7.290   7.178  0.4706  1.6224  0.4502
22133SOL    HW267841   6.080   7.258   7.325  1.2923  2.9084  0.6442
22134SOL     OW67842   1.230   5.039   2.714  0.1506  0.0113  0.1496
22134SOL    HW167843   1.324   5.050   2.728 -0.2268  3.4379  0.7933
22134SOL    HW267844   1.219   5.047   2.619  0.4792  0.1294  0.1185
22135SOL     OW67845   1.641   5.658  10.852 -0.1165  0.0388 -0.3332
22135SOL    HW167846   1.567   5.706  10.814  0.4066  0.0562 -1.3580
22135SOL    HW267847   1.650   5.581  10.796 -1.8746 -2.1098  2.1315
22136SOL     OW67848   5.053   2.417   6.431 -0.3371  0.5396 -0.2304
22136SOL    HW167849   4.960   2.401   6.416 -0.1700  0.0075 -0.6976
22136SOL    HW267850   5.057   2.507   6.464 -0.6938  1.8490 -3.4773
22137SOL     OW67851   5.090   1.882   3.528  0.3121  0.1300  0.1437
22137SOL    HW167852   5.085   1.794   3.490  0.0670  1.0830 -2.1906
22137SOL    HW267853   4.999   1.907   3.544  0.3388  0.2507  0.1043
22138SOL     OW67854   0.001   0.237  12.244 -0.4089  0.2544 -0.1904
22138SOL    HW167855  -0.045   0.316  12.272 -0.8876 -0.5292  1.3371
22138SOL    HW267856   0.028   0.256  12.154  1.3931  3.0207  0.7938
22139SOL     OW67857   2.625   3.489   9.968  0.7804  0.2274  0.0060
22139SOL    HW167858   2.617   3.583   9.952  0.9326  0.2604  0.1197
22139SOL    HW267859   2.680   3.483  10.046  0.7821  0.0441 -0.0094
22140SOL     OW67860   7.001   2.853  11.980  0.3791 -0.0024  0.1415
22140SOL    HW167861   6.936   2.798  12.023  1.5391 -1.2428  0.3746
22140SOL    HW267862   6.964   2.870  11.893 -1.2791  1.2602  1.0233
22141SOL     OW67863   4.227   6.123  12.301  0.0851  0.7588  0.4288
22141SOL    HW167864   4.252   6.151  12.389  0.3091 -0.7347  0.8683
22141SOL    HW267865   4.132   6.139  12.297 -0.0437  0.2594  1.1907
22142SOL     OW67866   1.314   3.503   4.413  0.1250  0.2364  0.2798
22142SOL    HW167867   1.385   3.547   4.459 -0.1567  0.6117  0.3580
22142SOL    HW267868   1.343   3.411   4.406  0.5511  0.3580  0.4292
22143SOL     OW67869   3.383   0.380   3.855  0.4540  0.2870 -1.0518
22143SOL    HW167870   3.399   0.444   3.925 -0.2319 -0.7316  0.0691
22143SOL    HW267871   3.457   0.390   3.796  1.4479  0.6551  0.2149
22144SOL     OW67872   2.013   5.242   4.713 -0.8286 -0.1594  0.2816
22144SOL    HW167873   1.922   5.256   4.687 -0.8232 -0.0076  0.3429
22144SOL    HW267874   2.064   5.268   4.636 -0.8599 -0.7772  0.0477
22145SOL     OW67875   3.883   5.340   4.141 -0.0634 -0.0328 -0.1453
22145SOL    HW167876   3.962   5.292   4.165  0.5672 -0.0424 -2.0549
22145SOL    HW267877   3.908   5.432   4.146 -0.1390 -0.0135 -0.1163
22146SOL     OW67878   0.293   5.038   6.983 -0.6218  0.3133 -0.0955
22146SOL    HW167879   0.335   5.063   7.065 -1.3761 -0.4488  0.5429
22146SOL    HW267880   0.357   4.982   6.939 -0.2701  0.6110  0.0334
22147SOL     OW67881   5.930   7.044   4.931  0.5145 -0.0099  0.3673
22147SOL    HW167882   5.993   7.023   5.000  0.7655  0.5931  0.3269
22147SOL    HW267883   5.870   7.106   4.972 -0.9177 -1.6438  0.8417
22148SOL     OW67884   2.623   1.957   4.296  0.1057  0.0791 -0.3115
22148SOL    HW167885   2.604   2.006   4.215  0.9135 -1.1352 -1.2768
22148SOL    HW267886   2.656   2.023   4.357  3.7824  0.4773 -2.4307
22149SOL     OW67887   2.305   2.003  11.749 -0.8115  0.2263  0.4531
22149SOL    HW167888   2.288   2.089  11.787  0.8289  1.6498 -1.7873
22149SOL    HW267889   2.358   1.957  11.815  0.6701  2.0371  0.5983
22150SOL     OW67890   0.571   4.094   1.886  0.0395 -0.1336 -0.0796
22150SOL    HW167891   0.584   4.052   1.801  0.4337  0.7363 -0.4622
22150SOL    HW267892   0.554   4.022   1.946  1.7325 -0.9396 -0.5116
22151SOL     OW67893   1.349   3.211  10.081  0.2172  0.1339  0.4038
22151SOL    HW167894   1.345   3.168   9.996  0.8035  0.5175  0.1739
22151SOL    HW267895   1.264   3.254  10.091  0.4115  0.6983 -0.3211
22152SOL     OW67896   4.003   5.807   0.634  0.6223 -0.4606 -0.5946
22152SOL    HW167897   3.947   5.782   0.561 -0.1379 -1.7256  0.3825
22152SOL    HW267898   4.091   5.813   0.596  0.5165 -2.6668 -1.3196
22153SOL     OW67899   7.663   0.557   2.460  0.2935 -0.1727  0.2780
22153SOL    HW167900   7.688   0.516   2.377  0.1891  0.0548  0.1345
22153SOL    HW267901   7.723   0.519   2.524  1.0687  0.4196 -0.0785
22154SOL     OW67902   2.140   5.041   2.432 -0.1248  0.1145 -0.4767
22154SOL    HW167903   2.124   5.122   2.384 -0.7901  0.2487 -0.0413
22154SOL    HW267904   2.082   5.047   2.508  1.5090  0.3210  0.8192
22155SOL     OW67905   1.299   0.967  12.036 -0.2594 -0.5434 -0.1554
22155SOL    HW167906   1.221   0.973  12.091 -0.0122 -1.6791  0.3550
22155SOL    HW267907   1.364   0.924  12.092  0.0002 -1.7526 -1.3266
22156SOL     OW67908   7.703   0.029   7.634  0.0468 -0.0503 -0.5207
22156SOL    HW167909   7.636   0.020   7.702  1.2655 -2.3790  0.4841
22156SOL    HW267910   7.758   0.102   7.664  1.1002 -1.6007  1.5725
22157SOL     OW67911   6.663   0.860  10.593  0.5176 -0.9720  0.4134
22157SOL    HW167912   6.602   0.860  10.667 -0.2353 -0.6388 -0.1984
22157SOL    HW267913   6.718   0.936  10.608 -0.3512 -0.2616  0.0611
22158SOL     OW67914   0.200   2.245  11.424  0.1479  0.2447  0.4254
22158SOL    HW167915   0.120   2.241  11.476 -0.3148 -0.4679 -0.3069
22158SOL    HW267916   0.234   2.333  11.438 -3.5133  2.5953 -3.2332
22159SOL     OW67917   5.997   4.112   1.439 -0.0284  0.6677  0.0190
22159SOL    HW167918   6.016   4.199   1.404  1.5143  1.0536  1.6882
22159SOL    HW267919   5.907   4.117   1.469 -0.3742  1.2666 -1.0720
22160SOL     OW67920   5.871   3.867   1.065 -0.1616  0.7914  0.2566
22160SOL    HW167921   5.800   3.856   1.002  0.6641 -0.8755 -0.4325
22160SOL    HW267922   5.828   3.866   1.150 -1.0201  0.3532 -0.1741
22161SOL     OW67923   3.889   2.647   8.942  0.7438  0.0193 -0.1215
22161SOL    HW167924   3.982   2.627   8.929  0.7592 -0.6582  0.8885
22161SOL    HW267925   3.852   2.649   8.854  1.5573 -0.5421 -0.4843
22162SOL     OW67926   0.046   0.432  10.148  0.7989  0.4359 -0.7114
22162SOL    HW167927   0.032   0.526  10.154  0.5086  0.4702 -1.7024
22162SOL    HW267928  -0.030   0.400  10.100  0.1317 -0.5216  0.9086
22163SOL     OW67929   0.001   5.485   0.059 -0.0683 -0.4224  0.3331
22163SOL    HW167930  -0.003   5.554  -0.007 -1.0212 -1.0987 -0.3354
22163SOL    HW267931   0.044   5.412   0.015  0.5954 -0.4006  0.9210
22164SOL     OW67932   6.594   1.188   7.302  0.3984  0.0774  0.1023
22164SOL    HW167933   6.640   1.269   7.283  1.0788 -0.5748 -1.0770
22164SOL    HW267934   6.654   1.138   7.358  0.7278 -0.3619 -0.6370
22165SOL     OW67935   5.659   1.554   2.614  0.6422  0.2456  0.1503
22165SOL    HW167936   5.737   1.610   2.621  0.3071  0.9468 -1.2526
22165SOL    HW267937   5.687   1.469   2.645  1.6535  0.7793  0.7353
22166SOL     OW67938   5.825   5.283  12.206 -0.5062  0.4550  0.1241
22166SOL    HW167939   5.849   5.322  12.290  0.2783 -0.0444  0.1484
22166SOL    HW267940   5.732   5.263  12.214 -0.7212  1.5532  0.4098
22167SOL     OW67941   0.417   1.229   4.147 -0.0107 -0.6772  0.4952
22167SOL    HW167942   0.506   1.263   4.147  0.3484 -1.5988  0.1308
22167SOL    HW267943   0.374   1.275   4.220  0.3198  0.8556 -0.2355
22168SOL     OW67944   3.852   7.206   7.859 -0.1849 -0.2370  0.1645
22168SOL    HW167945   3.783   7.213   7.926 -0.3822 -1.9689  0.1926
22168SOL    HW267946   3.927   7.171   7.906 -0.1234 -0.8636 -0.3929
22169SOL     OW67947   4.911   6.568  10.199  0.2288 -0.3447  0.3293
22169SOL    HW167948   4.844   6.550  10.134  0.3113 -0.0724  0.1666
22169SOL    HW267949   4.903   6.496  10.262 -0.3389 -0.2118  0.4135
22170SOL     OW67950   5.892   2.822   7.836  0.3188 -0.5699  0.6197
22170SOL    HW167951   5.903   2.864   7.750 -0.4064  0.2234  0.9088
22170SOL    HW267952   5.979   2.826   7.876  0.4662 -0.1945  0.2638
22171SOL     OW67953   6.459   7.532   7.800 -0.1229 -0.1893  0.3140
22171SOL    HW167954   6.395   7.508   7.867 -0.2266 -1.1657 -0.1090
22171SOL    HW267955   6.495   7.448   7.771 -0.8501  0.1130 -1.6000
22172SOL     OW67956   0.113   2.992   9.066 -0.2665  0.0463 -0.2592
22172SOL    HW167957   0.043   2.927   9.078  0.1410 -0.4151 -0.3903
22172SOL    HW267958   0.126   2.997   8.972 -0.3616  0.3891 -0.2556
22173SOL     OW67959   7.064   3.919   0.150  0.5373  1.4421  0.3354
22173SOL    HW167960   6.985   3.906   0.202  0.3421 -0.1650 -0.3006
22173SOL    HW267961   7.044   3.993   0.093 -0.0781  1.7607  0.9607
22174SOL     OW67962   1.505   2.098   1.650 -0.3639 -0.0336 -0.4250
22174SOL    HW167963   1.522   2.184   1.688 -1.4621  0.0617 -0.1274
22174SOL    HW267964   1.420   2.073   1.684  0.3747 -1.7006  0.2842
22175SOL     OW67965   4.477   3.188   5.214 -0.0823  0.0046 -0.3614
22175SOL    HW167966   4.496   3.144   5.131  1.5951  0.6015 -0.3473
22175SOL    HW267967   4.563   3.213   5.247 -0.6139 -1.0114  2.0224
22176SOL     OW67968   3.878   7.100   7.433 -0.6182  0.6896 -0.2381
22176SOL    HW167969   3.929   7.050   7.496 -2.3247 -0.9373 -0.0735
22176SOL    HW267970   3.943   7.148   7.382  1.0366 -0.8640  0.3117
22177SOL     OW67971   4.695   1.808   0.640 -0.0482 -0.0414 -0.2238
22177SOL    HW167972   4.644   1.734   0.672  1.2021 -0.9937 -0.3697
22177SOL    HW267973   4.690   1.873   0.711  0.7046 -1.1769  0.9112
22178SOL     OW67974   4.853   0.196  10.893  0.2681 -0.2700 -0.7636
22178SOL    HW167975   4.862   0.292  10.893  0.5918 -0.1841  2.9904
22178SOL    HW267976   4.765   0.181  10.858 -0.9815  1.6498  1.3127
22179SOL     OW67977   0.659   3.431   1.895 -0.5444 -0.0977 -0.0253
22179SOL    HW167978   0.714   3.363   1.857 -0.5000  0.3968 -0.8650
22179SOL    HW267979   0.711   3.466   1.968 -0.7821 -1.2922  0.7465
22180SOL     OW67980   5.345   4.550   1.188 -0.0962 -0.1697 -0.2792
22180SOL    HW167981   5.386   4.511   1.111 -1.6089 -0.4109 -0.9893
22180SOL    HW267982   5.255   4.518   1.187 -1.0005  2.1662 -0.0856
22181SOL     OW67983   1.039   4.399   4.796 -0.3040  0.2896 -0.2049
22181SOL    HW167984   1.117   4.448   4.821  0.5559 -0.6582 -0.9120
22181SOL    HW267985   0.981   4.406   4.871  1.6341 -1.3554  1.5830
22182SOL     OW67986   1.874   0.163   1.547  0.0616  0.0648  0.0248
22182SOL    HW167987   1.790   0.140   1.587 -0.9179  0.2066 -1.8411
22182SOL    HW267988   1.851   0.198   1.461  2.0327  0.3465 -0.4427
22183SOL     OW67989   0.467   1.128   1.707 -0.3974  0.3216  0.6255
22183SOL    HW167990   0.550   1.112   1.752 -0.2123  0.2895  0.2757
22183SOL    HW267991   0.467   1.222   1.690 -0.9038  0.4933  1.5417
22184SOL     OW67992   3.776   7.101   2.811  0.2835 -0.2143 -0.3153
22184SOL    HW167993   3.733   7.122   2.728 -2.5474 -0.6822  0.9071
22184SOL    HW267994   3.791   7.006   2.806 -0.2396 -0.3089 -0.1631
22185SOL     OW67995   4.986   2.761   4.073 -0.2924 -0.1656 -0.2104
22185SOL    HW167996   4.980   2.855   4.094 -0.4418  0.0876 -1.3030
22185SOL    HW267997   4.905   2.742   4.027  0.0554 -0.6625 -0.6282
22186SOL     OW67998   3.458   2.290   9.498  0.2155 -0.2410 -0.7685
22186SOL    HW167999   3.434   2.211   9.448 -1.6994  0.3216 -0.7990
22186SOL    HW268000   3.400   2.288   9.574 -0.3979  1.5065 -1.1487
22187SOL     OW68001   4.854   5.219   7.018 -0.2233 -0.3877 -0.1131
22187SOL    HW168002   4.784   5.170   6.975 -1.3483  1.2912 -0.2870
22187SOL    HW268003   4.860   5.180   7.105 -0.8552 -1.0476 -0.3537
22188SOL     OW68004   6.854   6.863   3.277 -0.1543 -0.0782 -0.2644
22188SOL    HW168005   6.853   6.956   3.256  0.1594 -0.4281 -1.9566
22188SOL    HW268006   6.770   6.847   3.319 -0.4136  0.8579 -0.3988
22189SOL     OW68007   5.245   4.640  10.522 -0.5763  0.0515  0.0155
22189SOL    HW168008   5.210   4.593  10.447 -1.3352  1.4244 -0.5337
22189SOL    HW268009   5.240   4.578  10.594 -0.5504 -1.0416 -0.8895
22190SOL     OW68010   7.809   6.079   8.670 -0.1395 -0.3394  0.1188
22190SOL    HW168011   7.733   6.045   8.718 -0.4425 -0.4314 -0.4149
22190SOL    HW268012   7.871   6.007   8.670 -0.5197 -0.6799 -0.4409
22191SOL     OW68013   1.546   3.759   5.307  0.1579  0.0852  0.2665
22191SOL    HW168014   1.568   3.674   5.270 -2.5426 -0.1772 -0.9768
22191SOL    HW268015   1.508   3.740   5.392  0.6580  0.1736  0.5149
22192SOL     OW68016   3.255   4.448   2.231 -0.0085 -0.5827 -0.4338
22192SOL    HW168017   3.288   4.473   2.318 -0.4715 -0.8969 -0.1634
22192SOL    HW268018   3.286   4.359   2.218  0.0633 -0.5341 -0.5890
22193SOL     OW68019   6.927   4.189   3.124  0.3406  0.2488  0.0168
22193SOL    HW168020   6.994   4.192   3.192 -0.2659 -0.1474  0.6376
22193SOL    HW268021   6.953   4.257   3.062  0.8527  0.6738  0.6833
22194SOL     OW68022   7.445   3.142   2.754 -0.0667 -0.3574  0.3498
22194SOL    HW168023   7.426   3.103   2.669 -0.4744 -1.1387  0.7883
22194SOL    HW268024   7.413   3.232   2.747  1.1455  0.0284 -0.7709
22195SOL     OW68025   0.987   4.183   1.029 -0.4320 -0.1453 -0.0265
22195SOL    HW168026   1.063   4.212   0.979 -0.7207  1.3492  0.3557
22195SOL    HW268027   0.977   4.248   1.098 -0.5616 -1.6856  1.4838
22196SOL     OW68028   0.116   7.744   0.491  0.5292 -0.4252  0.1841
22196SOL    HW168029   0.113   7.661   0.540  0.7417 -0.5552 -0.0265
22196SOL    HW268030   0.177   7.798   0.541  1.5746 -0.9310 -0.5232
22197SOL     OW68031   2.462   0.145  11.786  0.1105  0.5361 -0.6963
22197SOL    HW168032   2.426   0.063  11.752  1.2685 -0.1820 -0.2717
22197SOL    HW268033   2.429   0.151  11.875 -0.2754  0.7183 -0.8522
22198SOL     OW68034   0.557   1.852   2.241 -0.8446 -0.1306 -0.3126
22198SOL    HW168035   0.573   1.939   2.279  0.5297 -0.1731 -0.7392
22198SOL    HW268036   0.461   1.846   2.235 -0.9819  1.1276  0.2339
22199SOL     OW68037   7.525   3.131   6.542 -0.2513  0.3569 -0.0287
22199SOL    HW168038   7.506   3.064   6.608  0.1070  1.6634  1.4818
22199SOL    HW268039   7.483   3.099   6.462 -1.6894 -0.7632  1.1110
22200SOL     OW68040   5.301   2.880   7.591  0.1354 -0.2057 -0.2225
22200SOL    HW168041   5.291   2.858   7.683  2.7417  1.2105  0.5006
22200SOL    HW268042   5.373   2.825   7.561 -0.4701 -0.4177 -1.3630
22201SOL     OW68043   7.711   3.627  12.279  0.3345 -0.5240  0.1007
22201SOL    HW168044   7.755   3.710  12.297 -0.0207 -0.0201 -1.2656
22201SOL    HW268045   7.781   3.569  12.249  0.1698  0.2314 -1.9240
22202SOL     OW68046   6.767   4.509   4.359 -0.2534 -0.0272 -0.1765
22202SOL    HW168047   6.849   4.559   4.363 -0.2230  0.0267 -1.2009
22202SOL    HW268048   6.734   4.525   4.271  0.2526 -2.5677 -0.9061
22203SOL     OW68049   7.258   4.815  11.330 -0.5939 -0.2966 -0.4163
22203SOL    HW168050   7.225   4.905  11.332  1.6826  0.6038 -0.4227
22203SOL    HW268051   7.195   4.765  11.382 -2.8280  0.9241 -1.7868
22204SOL     OW68052   0.699   3.060  12.279  0.4000 -0.7656 -0.5685
22204SOL    HW168053   0.741   3.003  12.342 -1.2846  0.1996  1.5681
22204SOL    HW268054   0.630   3.006  12.240  0.8436 -1.0955 -0.8984
22205SOL     OW68055   2.798   4.067   0.506  0.2465 -0.0393 -0.0295
22205SOL    HW168056   2.717   4.036   0.465  0.8464 -1.0322 -0.4809
22205SOL    HW268057   2.849   4.103   0.434 -0.0907  1.3117  0.3670
22206SOL     OW68058   6.346   0.478   3.244  0.2845 -0.7858 -0.2039
22206SOL    HW168059   6.270   0.431   3.209  0.6723 -0.2792 -1.8106
22206SOL    HW268060   6.418   0.416   3.237 -0.1007 -1.5750  2.1347
22207SOL     OW68061   6.721   4.992   5.332  0.4632  0.1474  0.0436
22207SOL    HW168062   6.719   4.958   5.421  1.8547 -2.1564 -0.7273
22207SOL    HW268063   6.694   4.918   5.277  2.8338  0.4475 -1.6771
22208SOL     OW68064   5.919   0.898   5.448 -0.0704 -0.0282  0.0453
22208SOL    HW168065   5.937   0.988   5.418 -3.1831  0.4160 -0.8086
22208SOL    HW268066   5.932   0.901   5.543  0.0489  1.2768  0.0070
22209SOL     OW68067   1.706   5.700   8.881 -0.3931  0.0893 -0.3398
22209SOL    HW168068   1.681   5.786   8.913  0.9912  0.8693 -1.2573
22209SOL    HW268069   1.766   5.666   8.948  2.1863  1.5534 -1.7482
22210SOL     OW68070   4.059   6.765   3.382 -0.2745  0.0705  0.5745
22210SOL    HW168071   4.098   6.683   3.353  0.6932  0.7691 -0.1548
22210SOL    HW268072   3.997   6.788   3.313 -2.2408 -1.1507  1.8326
22211SOL     OW68073   4.141   3.709   3.442 -0.1481  0.3526 -0.2422
22211SOL    HW168074   4.231   3.708   3.408 -0.3125  1.6267 -0.7565
22211SOL    HW268075   4.087   3.730   3.366 -1.3821 -4.2946 -0.9478
22212SOL     OW68076   4.105   6.885   4.462 -0.1312 -0.0751 -0.4368
22212SOL    HW168077   4.185   6.883   4.410 -0.5833 -2.4482 -1.1505
22212SOL    HW268078   4.054   6.811   4.431 -1.0293 -0.8073  2.4480
22213SOL     OW68079   7.774   0.618   3.410 -0.6615  0.5512  0.2265
22213SOL    HW168080   7.853   0.633   3.462 -1.6852 -0.5596  2.2149
22213SOL    HW268081   7.800   0.552   3.346  0.1057  0.3462  0.7336
22214SOL     OW68082   4.740   2.147   8.214  0.2885 -0.4666  0.2950
22214SOL    HW168083   4.691   2.144   8.296  0.4339 -0.8861  0.3734
22214SOL    HW268084   4.705   2.073   8.163 -0.1204  0.0682 -0.2088
22215SOL     OW68085   0.258   2.271  11.103  0.1376 -0.1277  0.4841
22215SOL    HW168086   0.351   2.258  11.117  0.3774  1.4950  0.6186
22215SOL    HW268087   0.240   2.357  11.143 -1.3232 -0.2307  0.1010
22216SOL     OW68088   4.124   4.732  11.704  0.2930 -0.1362 -0.3968
22216SOL    HW168089   4.184   4.792  11.748 -0.3773  0.3697 -0.1585
22216SOL    HW268090   4.150   4.645  11.734  1.6000 -0.0350 -1.1273
22217SOL     OW68091   3.746   4.685   4.966  0.0621  0.4107  0.3967
22217SOL    HW168092   3.705   4.687   4.880  0.3539 -2.5912  0.0899
22217SOL    HW268093   3.673   4.700   5.027 -0.7471 -0.4983 -0.2967
22218SOL     OW68094   4.635   4.787  11.590  0.3518  0.0150 -0.0596
22218SOL    HW168095   4.661   4.743  11.509 -1.7953  0.1234 -0.8660
22218SOL    HW268096   4.674   4.734  11.659  1.1117 -0.8625 -1.1164
22219SOL     OW68097   7.683   7.897  11.225  0.0476  0.3930 -0.0002
22219SOL    HW168098   7.769   7.870  11.192  0.3476  1.6671 -0.2961
22219SOL    HW268099   7.622   7.877  11.154  0.1326 -0.2199  0.0895
22220SOL     OW68100   7.387   3.656  12.135 -0.0430  0.3739 -0.3720
22220SOL    HW168101   7.466   3.608  12.109 -0.0696 -0.7058  1.3555
22220SOL    HW268102   7.383   3.645  12.230 -2.3629  0.2472 -0.4255
22221SOL     OW68103   2.015   5.672   8.722 -0.1410 -0.6709  0.0764
22221SOL    HW168104   2.044   5.671   8.631 -2.4445 -3.1154 -0.7615
22221SOL    HW268105   2.054   5.594   8.761  0.3011  0.0024  1.0396
22222SOL     OW68106   4.605   5.723   0.579 -0.1209  0.5975 -0.0007
22222SOL    HW168107   4.566   5.750   0.663  0.1643  2.6105 -0.4603
22222SOL    HW268108   4.617   5.805   0.531 -0.2065 -0.4947 -1.9994
22223SOL     OW68109   6.311   5.983   0.217  0.5067  0.5053  0.0523
22223SOL    HW168110   6.268   5.922   0.157 -0.8185  1.0516  0.4017
22223SOL    HW268111   6.404   5.969   0.203  0.2238 -0.6327 -0.8465
22224SOL     OW68112   3.913   1.365   3.405 -0.1089 -0.1349 -0.3396
22224SOL    HW168113   3.856   1.332   3.336 -0.3201 -1.1164  0.2707
22224SOL    HW268114   3.926   1.457   3.384  0.4664 -0.5836 -2.1075
22225SOL     OW68115   0.039   1.391   7.142 -0.0760  0.6053 -0.0520
22225SOL    HW168116   0.066   1.477   7.174 -0.5263  0.5873  0.4037
22225SOL    HW268117  -0.031   1.365   7.203  2.4537 -1.6797  2.1520
22226SOL     OW68118   5.263   1.299   2.185 -0.4303  0.2813 -0.0161
22226SOL    HW168119   5.275   1.284   2.091 -1.6599  0.8658 -0.2872
22226SOL    HW268120   5.338   1.353   2.210  1.4588 -2.1726 -0.0224
22227SOL     OW68121   2.343   3.452   0.840  0.1981  0.5199 -0.3111
22227SOL    HW168122   2.303   3.427   0.924 -2.7303 -0.4502 -1.8447
22227SOL    HW268123   2.414   3.389   0.827 -0.5656 -0.5553  0.5625
22228SOL     OW68124   4.750   0.511  10.608  0.0441 -0.4344  0.5669
22228SOL    HW168125   4.843   0.497  10.626  0.3350 -1.0133 -1.1868
22228SOL    HW268126   4.740   0.606  10.610  0.8221 -0.3307  0.2041
22229SOL     OW68127   0.759   5.972   6.855 -0.1462 -0.4245 -0.3836
22229SOL    HW168128   0.804   6.030   6.794 -1.6312 -0.2444 -1.3585
22229SOL    HW268129   0.667   5.978   6.831 -0.6354 -1.2579  1.1414
22230SOL     OW68130   4.501   7.435   9.511  0.1910  0.4836  0.3679
22230SOL    HW168131   4.477   7.525   9.532  1.0971  0.6519  0.6858
22230SOL    HW268132   4.550   7.442   9.429  1.7659  0.4882  1.2805
22231SOL     OW68133   6.737   1.427   2.303 -0.1510 -0.2028 -0.3322
22231SOL    HW168134   6.747   1.488   2.376  1.5487 -1.5073  0.5892
22231SOL    HW268135   6.644   1.432   2.280 -0.7301  0.2638  1.9028
22232SOL     OW68136   2.768   1.098  12.446  0.6147 -0.4570  0.3960
22232SOL    HW168137   2.854   1.099  12.488  1.4840 -0.4398 -1.2973
22232SOL    HW268138   2.741   1.190  12.446  0.9618 -0.3538  0.2312
22233SOL     OW68139   5.253   3.989   4.961 -0.3966 -0.0233 -0.1288
22233SOL    HW168140   5.174   3.992   4.907  0.7576  2.2091 -1.8505
22233SOL    HW268141   5.233   4.046   5.035 -0.1983  1.1361 -0.9371
22234SOL     OW68142   2.509   6.691   0.477 -0.3735 -0.3883 -0.6538
22234SOL    HW168143   2.486   6.694   0.570 -0.5067  0.9601 -0.7130
22234SOL    HW268144   2.473   6.772   0.441 -0.6589 -1.0742 -1.9652
22235SOL     OW68145   1.986   6.041   2.174 -0.1400  0.3880 -1.0076
22235SOL    HW168146   1.969   5.999   2.258 -0.7131  0.2539 -1.1875
22235SOL    HW268147   2.065   5.998   2.141 -1.9518 -2.2733 -2.2763
22236SOL     OW68148   3.454   4.535  12.367  0.0864 -0.1409 -0.0768
22236SOL    HW168149   3.476   4.578  12.449  0.7023  1.1333 -0.8792
22236SOL    HW268150   3.406   4.602  12.317  1.1055 -0.3399 -1.3808
22237SOL     OW68151   5.416   5.835  10.848  0.4024  0.0435 -0.1137
22237SOL    HW168152   5.479   5.765  10.866  0.1477 -0.2122 -0.2055
22237SOL    HW268153   5.359   5.799  10.780  1.7371  1.2034 -1.9580
22238SOL     OW68154   5.241   2.502   7.203 -0.7218 -0.2967  0.1324
22238SOL    HW168155   5.300   2.426   7.201  1.3848  1.2466 -0.8129
22238SOL    HW268156   5.300   2.577   7.214 -2.5537  1.3524 -0.7285
22239SOL     OW68157   3.424   4.332  11.644  0.1134  0.4052  0.0920
22239SOL    HW168158   3.505   4.303  11.686  0.4847  0.2538 -0.7174
22239SOL    HW268159   3.360   4.334  11.715  0.4259 -1.0141  0.4536
22240SOL     OW68160   7.564   2.316   5.018 -0.6229 -0.4003 -0.1120
22240SOL    HW168161   7.575   2.221   5.024 -0.6734 -0.5299 -1.5764
22240SOL    HW268162   7.620   2.342   4.945  0.5098  0.9291  1.1653
22241SOL     OW68163   3.766   0.596   4.557 -0.0104  0.0465  0.1201
22241SOL    HW168164   3.799   0.510   4.531 -1.6522 -0.1679 -1.5149
22241SOL    HW268165   3.798   0.655   4.489 -0.2753  0.4084  0.3059
22242SOL     OW68166   6.423   5.596   3.365  0.0955 -0.2784 -0.4183
22242SOL    HW168167   6.469   5.604   3.281 -0.9078  0.1158 -0.9409
22242SOL    HW268168   6.396   5.504   3.368 -0.2918 -0.1817 -0.7686
22243SOL     OW68169   7.083   1.705   4.274  0.7155  0.0355  0.2294
22243SOL    HW168170   7.001   1.723   4.229 -0.9241 -0.5726  2.7194
22243SOL    HW268171   7.152   1.734   4.214 -1.1866 -1.5694 -2.9505
22244SOL     OW68172   2.815   1.058   9.095 -0.4984 -0.0369  0.1621
22244SOL    HW168173   2.753   1.053   9.168 -0.7441 -0.6334 -0.0815
22244SOL    HW268174   2.789   0.987   9.037  2.2015 -2.2930  1.4759
22245SOL     OW68175   1.896   3.798  12.428  0.4496 -0.1852 -0.0528
22245SOL    HW168176   1.934   3.871  12.478  0.2387 -1.0513  1.4390
22245SOL    HW268177   1.816   3.834  12.390  1.0142  0.7130 -0.4130
22246SOL     OW68178   2.945   4.405   8.163 -0.4533  0.1557  0.0786
22246SOL    HW168179   2.881   4.340   8.133 -1.8324  0.5352  2.0381
22246SOL    HW268180   2.966   4.379   8.252  3.3632 -0.8025 -0.9212
22247SOL     OW68181   3.134   6.770  10.680 -0.0869  0.1585  0.0935
22247SOL    HW168182   3.113   6.859  10.707  2.4383  0.4193  1.5675
22247SOL    HW268183   3.186   6.780  10.601 -1.0554 -0.1368 -0.5998
22248SOL     OW68184   3.471   6.388   0.238 -0.1910  0.2705  0.3160
22248SOL    HW168185   3.465   6.316   0.301  0.1622  1.1488  1.3806
22248SOL    HW268186   3.553   6.371   0.191 -0.5245 -0.4618 -0.0193
22249SOL     OW68187   7.416   7.913   8.701  0.1439  0.2496 -0.4649
22249SOL    HW168188   7.459   7.959   8.773  1.1819  0.1217 -0.9817
22249SOL    HW268189   7.392   7.828   8.737  2.1491 -0.4605 -0.6974
22250SOL     OW68190   5.397   2.977   9.220 -0.1350  0.2333  0.3374
22250SOL    HW168191   5.312   2.936   9.205 -0.0105 -0.0631  0.4293
22250SOL    HW268192   5.385   3.031   9.297  0.2291 -1.2144  1.4588
22251SOL     OW68193   2.827   2.188   0.280  0.3358  0.1454 -0.1987
22251SOL    HW168194   2.778   2.233   0.349  0.3650  0.8068 -0.6061
22251SOL    HW268195   2.780   2.209   0.199  0.9158  0.2419 -0.5107
22252SOL     OW68196   5.977   1.339   6.721  0.3913 -1.0867  0.2251
22252SOL    HW168197   5.908   1.274   6.710 -1.2464  0.7682 -1.5340
22252SOL    HW268198   6.024   1.338   6.637  0.0780  0.2014  0.0057
22253SOL     OW68199   5.821   7.483  12.141 -0.5238 -0.3426  0.0293
22253SOL    HW168200   5.836   7.548  12.209 -1.6983  0.3390 -0.3420
22253SOL    HW268201   5.880   7.411  12.164 -0.9038 -0.1426  1.7727
22254SOL     OW68202   1.835   5.137   4.515 -0.1238 -0.1556  0.0333
22254SOL    HW168203   1.851   5.172   4.428 -0.4958 -1.7090 -0.7019
22254SOL    HW268204   1.910   5.079   4.532 -0.1224  0.0276  0.6878
22255SOL     OW68205   2.050   5.567   9.311 -0.2234 -0.1336 -0.7872
22255SOL    HW168206   2.007   5.485   9.337 -0.0436 -0.3432 -1.1387
22255SOL    HW268207   1.981   5.633   9.315 -0.4047 -0.3312 -0.6405
22256SOL     OW68208   2.796   6.789   6.832 -0.4740  0.7902  0.3071
22256SOL    HW168209   2.728   6.744   6.882  0.0381 -0.1406  0.1907
22256SOL    HW268210   2.756   6.807   6.747 -1.1757  1.9124  0.8484
22257SOL     OW68211   0.904   7.367   5.076 -0.1612  0.6685 -0.0194
22257SOL    HW168212   0.939   7.327   5.155 -1.8223  0.8026  0.8373
22257SOL    HW268213   0.911   7.299   5.009  1.6944  0.7117  0.0758
22258SOL     OW68214   6.094   2.798   5.019  0.4863 -0.0290  0.0817
22258SOL    HW168215   6.023   2.841   5.066 -0.1094 -1.3947  0.4914
22258SOL    HW268216   6.109   2.853   4.942  0.6213  1.5517  1.2115
22259SOL     OW68217   1.735   3.102   4.978 -0.2542  0.2104 -0.3714
22259SOL    HW168218   1.783   3.142   5.051  0.3081  0.4858 -0.8878
22259SOL    HW268219   1.648   3.084   5.014 -0.2044  0.9891  0.1536
22260SOL     OW68220   3.592   3.695   5.095  0.0749 -0.0790  0.3694
22260SOL    HW168221   3.632   3.715   5.010 -0.4636  0.1206  0.1599
22260SOL    HW268222   3.640   3.618   5.126  1.3396  0.7810  0.6184
22261SOL     OW68223   2.635   3.234  11.323  0.1489  0.2242 -0.4599
22261SOL    HW168224   2.625   3.229  11.228 -0.6362 -0.2464 -0.3547
22261SOL    HW268225   2.569   3.175  11.358  0.6265  0.1688  0.3758
22262SOL     OW68226   5.453   5.722   9.520 -0.0898  0.5321 -0.0494
22262SOL    HW168227   5.432   5.757   9.606 -1.6675 -0.7689  0.1360
22262SOL    HW268228   5.527   5.663   9.535  0.6237  1.4450  0.1248
22263SOL     OW68229   6.347   5.218  10.198 -0.1684  0.4788  0.1888
22263SOL    HW168230   6.387   5.274  10.265  0.2895  0.9003 -0.4272
22263SOL    HW268231   6.283   5.166  10.246 -0.9404  1.8648  0.7114
22264SOL     OW68232   2.825   6.133  11.644 -0.6369 -1.1557  0.2437
22264SOL    HW168233   2.778   6.086  11.575 -0.4028 -0.7444 -0.2069
22264SOL    HW268234   2.769   6.123  11.722 -1.0727 -1.3454 -0.0861
22265SOL     OW68235   5.155   5.904   6.291  0.2638 -0.2866  0.2571
22265SOL    HW168236   5.183   5.970   6.354 -1.5293  2.3903 -1.5284
22265SOL    HW268237   5.230   5.892   6.233 -0.1693  2.3195 -0.9780
22266SOL     OW68238   4.974   2.301   9.495 -0.5193  0.1786 -0.4279
22266SOL    HW168239   5.062   2.321   9.464 -0.4732 -0.0913 -0.4711
22266SOL    HW268240   4.916   2.350   9.436 -0.3994  0.4035 -0.3624
22267SOL     OW68241   3.473   6.157  12.130  0.1258  0.1492 -0.0399
22267SOL    HW168242   3.513   6.092  12.189  0.3936  0.5861  0.2668
22267SOL    HW268243   3.385   6.122  12.113 -0.2112  0.3488  1.1682
22268SOL     OW68244   6.711   6.532   0.367  0.0411  0.5966 -0.4618
22268SOL    HW168245   6.618   6.544   0.386  0.0618  1.0382 -0.6390
22268SOL    HW268246   6.715   6.516   0.273  0.0367 -0.5924 -0.2729
22269SOL     OW68247   1.509   7.873   7.965 -0.3460 -0.1502 -0.4968
22269SOL    HW168248   1.504   7.962   7.930  0.4986  1.4470  2.9841
22269SOL    HW268249   1.425   7.833   7.942 -1.4046  2.1022 -0.8139
22270SOL     OW68250   2.493   7.135   1.519 -0.2143 -0.1995  0.3542
22270SOL    HW168251   2.574   7.167   1.480  0.1664 -0.0969  1.1975
22270SOL    HW268252   2.521   7.088   1.598 -0.8936 -1.1306  0.0596
22271SOL     OW68253   3.198   1.240   4.058  0.1793 -0.1998 -0.2179
22271SOL    HW168254   3.280   1.202   4.091 -0.3180 -0.9337  0.1853
22271SOL    HW268255   3.202   1.225   3.963  0.6731  0.0921 -0.2504
22272SOL     OW68256   0.260   4.456   3.663 -0.0220  0.6989 -0.5072
22272SOL    HW168257   0.343   4.443   3.709  0.9227  4.2337 -0.9871
22272SOL    HW268258   0.273   4.413   3.578  0.6517 -0.2306  0.0450
22273SOL     OW68259   2.014   3.716   8.691 -0.0578 -0.0803  0.6243
22273SOL    HW168260   2.015   3.811   8.679  2.1007 -0.1124  0.2301
22273SOL    HW268261   2.003   3.704   8.785  2.3024  0.6629  1.0534
22274SOL     OW68262   5.727   4.484   3.451  0.0099  0.0492 -0.0574
22274SOL    HW168263   5.728   4.394   3.485  0.3564  0.3763  0.8020
22274SOL    HW268264   5.738   4.539   3.528  1.7938  0.7768 -0.7912
22275SOL     OW68265   1.846   3.569   4.315 -0.7026  0.3412  0.2115
22275SOL    HW168266   1.919   3.611   4.269 -1.5105  0.6375 -0.8351
22275SOL    HW268267   1.789   3.538   4.245 -1.5582  0.0720  1.0182
22276SOL     OW68268   7.229   0.737   8.766 -0.0571 -0.1591 -0.6822
22276SOL    HW168269   7.205   0.713   8.855  0.0701 -1.2742 -0.9400
22276SOL    HW268270   7.321   0.763   8.772 -0.4938  1.3789 -0.2068
22277SOL     OW68271   3.776   0.795  11.212 -0.0484  0.0539  0.0982
22277SOL    HW168272   3.756   0.701  11.214 -1.5048  0.2793 -1.3535
22277SOL    HW268273   3.819   0.812  11.295 -1.6953 -1.4963  1.3622
22278SOL     OW68274   4.000   7.284   6.812  0.7050 -0.7069 -0.1379
22278SOL    HW168275   3.920   7.294   6.761  0.2739  0.8844  0.7927
22278SOL    HW268276   4.004   7.190   6.833 -0.3069 -0.9880 -1.1175
22279SOL     OW68277   1.870   2.739  10.686  0.4815  0.2571 -0.2703
22279SOL    HW168278   1.833   2.726  10.773  0.2693 -1.2046 -0.5616
22279SOL    HW268279   1.909   2.827  10.689  0.8708  0.0495  1.4329
22280SOL     OW68280   2.373   0.773   1.000  0.1171 -0.0102 -0.3303
22280SOL    HW168281   2.384   0.868   0.996 -0.4268  0.0599 -0.2738
22280SOL    HW268282   2.318   0.758   1.077  0.4670 -0.4000 -0.1473
22281SOL     OW68283   1.439   6.799   3.259  0.0678 -0.0114 -0.1747
22281SOL    HW168284   1.391   6.782   3.178  0.8640  0.1817 -0.6895
22281SOL    HW268285   1.411   6.887   3.285  0.8612  0.4906 -0.9917
22282SOL     OW68286   7.105   2.732   5.860 -0.4547 -0.3932 -0.3577
22282SOL    HW168287   7.027   2.689   5.824 -1.6882  0.1288  1.5405
22282SOL    HW268288   7.142   2.667   5.921 -1.0355  0.3473  0.8234
22283SOL     OW68289   1.076   6.984   5.600  0.6892  0.6994 -0.5252
22283SOL    HW168290   1.135   6.996   5.526  0.5014 -2.0885 -1.2378
22283SOL    HW268291   1.132   6.952   5.671  0.1292 -2.3945 -1.3375
22284SOL     OW68292   0.383   1.029   0.975 -0.3743  0.0930 -0.0630
22284SOL    HW168293   0.467   1.012   1.017 -0.5003  0.3339  0.2860
22284SOL    HW268294   0.343   1.098   1.027 -1.5405 -1.1918  0.8075
22285SOL     OW68295   3.570   6.321  10.554  0.3810 -0.7035 -0.7337
22285SOL    HW168296   3.664   6.333  10.541  0.7361  0.5136  2.0905
22285SOL    HW268297   3.564   6.258  10.626 -0.8099  1.1045  0.8531
22286SOL     OW68298   4.450   0.463   7.723  0.2528  0.0015  0.6504
22286SOL    HW168299   4.441   0.392   7.786 -1.5552 -1.5056 -1.1311
22286SOL    HW268300   4.519   0.435   7.664 -0.5846 -0.4090 -0.1611
22287SOL     OW68301   2.544   5.781   9.231 -0.8754 -0.5155  0.1258
22287SOL    HW168302   2.507   5.817   9.311 -1.8448  0.7100 -0.8456
22287SOL    HW268303   2.553   5.687   9.249 -0.6418 -0.2026  1.8092
22288SOL     OW68304   2.106   4.044   5.080 -0.2950 -0.2992  0.4768
22288SOL    HW168305   2.084   3.998   5.161 -2.5207  0.5251  0.4175
22288SOL    HW268306   2.130   4.132   5.109  0.0313 -0.3284  0.2999
22289SOL     OW68307   6.347   4.052   6.633 -0.3617 -0.1016 -0.1113
22289SOL    HW168308   6.330   4.027   6.723 -0.7141  0.5891  0.0193
22289SOL    HW268309   6.347   3.969   6.585 -2.3327 -0.3268  0.1723
22290SOL     OW68310   3.223   1.789   5.649 -0.6702 -0.3655 -0.7250
22290SOL    HW168311   3.142   1.793   5.598 -0.5348 -2.3106 -1.1456
22290SOL    HW268312   3.203   1.733   5.723  0.4697 -1.4666 -1.2134
22291SOL     OW68313   0.167   4.006   8.570  0.3212  0.4836  0.0097
22291SOL    HW168314   0.151   4.087   8.619 -0.4429  0.1885  0.2689
22291SOL    HW268315   0.083   3.987   8.528  0.9150  0.6323 -1.2859
22292SOL     OW68316   1.872   0.815   5.074 -0.1850  0.0990 -0.6247
22292SOL    HW168317   1.858   0.756   5.000 -1.2887 -1.3896  0.7148
22292SOL    HW268318   1.826   0.895   5.050 -1.9806 -0.9541 -0.8756
22293SOL     OW68319   5.621   7.674   2.252  0.4484 -0.1577  0.5155
22293SOL    HW168320   5.575   7.596   2.223 -0.7725  1.2396 -1.5019
22293SOL    HW268321   5.554   7.727   2.295  0.4620  1.1743 -1.0097
22294SOL     OW68322   6.789   4.848   4.030 -0.0425  0.3914  0.4360
22294SOL    HW168323   6.808   4.914   4.095  0.5186 -0.0857  0.7713
22294SOL    HW268324   6.819   4.886   3.947  0.1311  0.6148  0.6015
22295SOL     OW68325   1.251   7.652   8.897 -0.1658 -0.4383 -0.1673
22295SOL    HW168326   1.167   7.693   8.917 -0.0557 -1.0837  1.7638
22295SOL    HW268327   1.248   7.566   8.939  1.8857 -0.0174  1.0312
22296SOL     OW68328   6.360   1.924   4.455 -0.1149  0.3505 -0.4700
22296SOL    HW168329   6.336   1.838   4.488 -1.0791 -0.3275 -2.6738
22296SOL    HW268330   6.276   1.970   4.447 -0.2629 -0.1721 -3.3942
22297SOL     OW68331   1.024   3.024  11.236  0.2593 -0.0055  0.2873
22297SOL    HW168332   1.069   3.075  11.169  0.9095  0.7981  1.3116
22297SOL    HW268333   0.931   3.032  11.214  0.4344  0.6459 -0.2330
22298SOL     OW68334   2.029   4.781   0.956  0.0757 -0.4690 -0.5735
22298SOL    HW168335   2.028   4.694   0.995 -0.1693 -0.5054 -0.6559
22298SOL    HW268336   2.090   4.831   1.010 -0.4935 -0.4308  0.0393
22299SOL     OW68337   0.079   7.547   6.551  0.0339  0.1263 -0.7739
22299SOL    HW168338   0.112   7.528   6.463  2.8961 -0.4610  0.3110
22299SOL    HW268339   0.073   7.461   6.593 -1.0418  0.4216 -0.2915
22300SOL     OW68340   1.265   7.256  10.852  0.5622 -0.3176  0.5698
22300SOL    HW168341   1.272   7.182  10.792  0.1318  1.7177 -2.1784
22300SOL    HW268342   1.347   7.305  10.841 -0.2511  1.0421  0.2050
22301SOL     OW68343   2.280   0.617   2.776  0.5644  0.0171 -0.4651
22301SOL    HW168344   2.252   0.651   2.691 -1.5912  1.1886  0.6301
22301SOL    HW268345   2.235   0.533   2.785 -0.3158  0.5302  0.0605
22302SOL     OW68346   4.937   7.017   9.663 -0.7239 -0.0746 -0.1652
22302SOL    HW168347   5.020   7.061   9.644 -1.6188  1.7124 -0.0779
22302SOL    HW268348   4.888   7.021   9.581 -1.0153 -0.5029 -0.0170
22303SOL     OW68349   2.073   4.515   1.016  0.1835 -0.7779  0.4231
22303SOL    HW168350   2.072   4.494   1.110 -0.9274 -1.0994  0.3595
22303SOL    HW268351   2.003   4.461   0.979 -0.9823  1.0448 -0.1942
22304SOL     OW68352   5.914   4.677   5.633  0.1669  0.0038 -0.1027
22304SOL    HW168353   5.831   4.659   5.678  0.4402  0.9575  0.8214
22304SOL    HW268354   5.932   4.769   5.652  1.0687  0.0125 -0.9269
22305SOL     OW68355   0.593   1.989   1.613 -0.0745 -0.9267  0.3239
22305SOL    HW168356   0.513   2.027   1.651 -0.1893 -1.1898  0.3452
22305SOL    HW268357   0.660   2.003   1.679 -0.3363 -1.6369  0.7469
22306SOL     OW68358   4.033   1.307   9.713 -0.0177  0.1902 -0.3150
22306SOL    HW168359   4.012   1.397   9.739 -1.9917 -0.2360 -0.2598
22306SOL    HW268360   3.977   1.253   9.768 -0.0675 -0.9924 -1.4774
22307SOL     OW68361   2.528   0.233  10.492  0.0006  0.2070 -0.2402
22307SOL    HW168362   2.544   0.155  10.546  0.5001  0.2200 -0.3660
22307SOL    HW268363   2.607   0.286  10.503 -0.3303  0.6920 -0.1715
22308SOL     OW68364   2.728   1.038   1.955 -0.4621 -0.2085 -0.0146
22308SOL    HW168365   2.764   0.966   1.903  0.1752 -2.1007  2.8042
22308SOL    HW268366   2.806   1.086   1.985 -0.8762  1.7877 -1.8464
22309SOL     OW68367   4.054   4.264   3.018 -0.1993 -0.3605  0.1810
22309SOL    HW168368   4.084   4.320   3.090 -0.2668 -1.2625  0.9344
22309SOL    HW268369   4.015   4.188   3.062 -2.3731  0.1298 -0.7858
22310SOL     OW68370   6.717   6.195   1.760 -0.1580 -0.5158  0.0163
22310SOL    HW168371   6.804   6.183   1.799  0.1190 -0.4964 -0.5892
22310SOL    HW268372   6.709   6.290   1.750 -0.0318 -0.5516 -0.4203
22311SOL     OW68373   1.025   0.982   0.619 -0.0297  0.3840  0.5408
22311SOL    HW168374   1.048   1.073   0.637 -0.4411  0.1433  2.4559
22311SOL    HW268375   0.930   0.980   0.628 -0.2081  0.0387 -1.0109
22312SOL     OW68376   5.744   3.194   9.915 -0.0983 -0.4769 -0.1539
22312SOL    HW168377   5.820   3.175   9.861 -1.4311  1.1235 -2.8159
22312SOL    HW268378   5.672   3.145   9.875 -0.6217 -1.6057  2.0237
22313SOL     OW68379   5.491   5.955   9.183 -0.9391  0.0493 -0.5069
22313SOL    HW168380   5.581   5.925   9.195 -0.3229  1.4580 -1.3636
22313SOL    HW268381   5.438   5.877   9.199  0.3786 -0.6935  0.5589
22314SOL     OW68382   7.131   3.270   5.906  0.2083  0.5037 -0.0938
22314SOL    HW168383   7.183   3.194   5.879  0.2504  0.5738 -0.2144
22314SOL    HW268384   7.041   3.245   5.884  0.2413  0.5548 -0.2878
22315SOL     OW68385   5.364   0.374   9.230 -0.6493  0.0918 -0.3596
22315SOL    HW168386   5.384   0.342   9.141  0.2799  0.0613 -0.1468
22315SOL    HW268387   5.448   0.404   9.264 -1.2603  1.4768 -0.0243
22316SOL     OW68388   3.559   1.222   4.624 -0.3621  0.1361  0.5030
22316SOL    HW168389   3.464   1.214   4.635 -0.6356  1.0931 -0.9173
22316SOL    HW268390   3.593   1.224   4.714 -1.8779  1.6877  1.1067
22317SOL     OW68391   3.813   3.868   5.162 -0.4731  0.9636  0.4206
22317SOL    HW168392   3.814   3.875   5.258 -1.8290 -1.5866  0.6921
22317SOL    HW268393   3.735   3.816   5.142  0.7986 -0.1828 -1.9551
22318SOL     OW68394   7.290   5.656   5.841 -0.2864 -0.2605 -0.4296
22318SOL    HW168395   7.222   5.702   5.890 -1.2034 -0.7735 -1.2012
22318SOL    HW268396   7.370   5.705   5.860 -0.9142  0.5258  0.2613
22319SOL     OW68397   4.655   6.196  11.793  0.4401 -0.3461  0.4423
22319SOL    HW168398   4.613   6.191  11.879  0.4650 -1.6357  0.3902
22319SOL    HW268399   4.621   6.278  11.755 -0.1989 -0.1777  1.3465
22320SOL     OW68400   6.417   5.846   2.521 -0.2253  0.0898 -0.1127
22320SOL    HW168401   6.423   5.751   2.519 -0.1059  0.1044 -0.4773
22320SOL    HW268402   6.452   5.875   2.437 -0.9430  0.4136 -0.3101
22321SOL     OW68403   4.202   1.173   5.994  0.2058  0.0455  0.5854
22321SOL    HW168404   4.264   1.163   5.923  0.3996 -0.2303  0.7896
22321SOL    HW268405   4.208   1.265   6.019 -1.4123  0.6654 -1.1515
22322SOL     OW68406   2.384   0.754   3.212 -0.1300 -0.1642 -0.1484
22322SOL    HW168407   2.396   0.674   3.264 -0.9735 -1.3823 -1.7221
22322SOL    HW268408   2.391   0.724   3.121  0.0587  1.6627 -0.7668
22323SOL     OW68409   5.301   4.517   2.076 -0.3907 -0.4296  0.3282
22323SOL    HW168410   5.215   4.557   2.088 -0.5526 -0.9926  1.1095
22323SOL    HW268411   5.335   4.558   1.996 -2.0502 -1.3545 -0.9262
22324SOL     OW68412   0.010   2.802   0.576 -0.4739 -0.0274 -0.8508
22324SOL    HW168413   0.076   2.740   0.546 -1.1183 -1.3768  0.3827
22324SOL    HW268414   0.057   2.884   0.587  0.9072 -0.8421 -0.4844
22325SOL     OW68415   5.126   1.500   7.604  0.1021 -0.0224 -0.0166
22325SOL    HW168416   5.089   1.546   7.528  1.4187 -0.7897 -1.1713
22325SOL    HW268417   5.219   1.491   7.583  0.8522  1.1138  2.4073
22326SOL     OW68418   7.660   7.683   9.407 -0.0681 -0.2675  0.7894
22326SOL    HW168419   7.612   7.637   9.475 -0.8196  1.6476  1.6486
22326SOL    HW268420   7.592   7.723   9.352  0.4614  1.9963  1.6725
22327SOL     OW68421   0.831   2.308   7.246 -0.0849  0.1418 -0.2384
22327SOL    HW168422   0.872   2.290   7.161  2.4259  0.2146  0.8961
22327SOL    HW268423   0.869   2.391   7.275 -1.9432  0.8336  0.3954
22328SOL     OW68424   7.376   1.886   6.497 -0.4140 -0.1608  0.5512
22328SOL    HW168425   7.447   1.938   6.458 -0.9617  0.0636 -0.1726
22328SOL    HW268426   7.353   1.933   6.577  0.0497 -0.0689  0.6339
22329SOL     OW68427   2.879   3.862   8.533  0.1282 -0.4460  0.2409
22329SOL    HW168428   2.939   3.916   8.584 -0.6136  2.1137 -1.4366
22329SOL    HW268429   2.792   3.884   8.567 -0.3078  0.6810 -1.4682
22330SOL     OW68430   5.293   4.694   6.577 -0.0197 -0.6166 -0.2110
22330SOL    HW168431   5.290   4.770   6.519 -1.3618 -1.5216 -1.4180
22330SOL    HW268432   5.362   4.638   6.540 -1.5252 -1.6447 -1.6283
22331SOL     OW68433   2.470   2.296   5.014 -0.2048  0.7709 -0.1866
22331SOL    HW168434   2.551   2.290   4.963 -0.0430  3.0196 -0.2802
22331SOL    HW268435   2.495   2.265   5.101  0.6111  0.8822 -0.3688
22332SOL     OW68436   1.735   6.802   2.332 -0.3917  0.0380 -0.1598
22332SOL    HW168437   1.756   6.879   2.278 -1.7269 -0.6099 -1.7081
22332SOL    HW268438   1.750   6.830   2.422  1.0052  1.4872 -0.8076
22333SOL     OW68439   5.136   1.656   5.329 -0.2451  0.2976  0.2018
22333SOL    HW168440   5.142   1.609   5.246  2.8186 -0.3665  0.6717
22333SOL    HW268441   5.224   1.691   5.344 -1.3481  2.6389  1.9508
22334SOL     OW68442   7.718   5.804   3.139  0.7914 -0.4216 -0.2104
22334SOL    HW168443   7.732   5.718   3.101  1.1012  0.1091 -1.3376
22334SOL    HW268444   7.806   5.834   3.163  0.9495  0.4226 -1.7395
22335SOL     OW68445   1.124   5.079  11.667 -0.0959 -0.4200  0.5076
22335SOL    HW168446   1.057   5.115  11.609  1.3851 -1.1663 -1.7689
22335SOL    HW268447   1.076   5.020  11.725 -1.4846 -0.5407 -0.7043
22336SOL     OW68448   1.533   4.690   8.821 -0.3927  0.0331 -0.7182
22336SOL    HW168449   1.582   4.675   8.740 -0.3202 -0.4800 -0.5835
22336SOL    HW268450   1.448   4.722   8.792  0.2781  1.7126 -0.9330
22337SOL     OW68451   4.787   1.503   0.108 -0.0005 -0.4140 -0.3151
22337SOL    HW168452   4.779   1.428   0.167 -1.5515 -0.1717 -0.1986
22337SOL    HW268453   4.764   1.468   0.022  0.0934 -0.2515 -0.4062
22338SOL     OW68454   5.713   6.557   0.202  0.1060 -0.6154  0.5234
22338SOL    HW168455   5.709   6.575   0.108 -0.6579 -0.1518  0.6328
22338SOL    HW268456   5.801   6.585   0.228 -0.6350  2.0081  0.4716
22339SOL     OW68457   7.110   6.541   8.177  0.0516 -0.0559  0.0127
22339SOL    HW168458   7.134   6.518   8.088 -0.8491 -0.3466 -0.1691
22339SOL    HW268459   7.193   6.551   8.223  0.5205  0.1060 -0.8578
22340SOL     OW68460   5.712   3.082   1.489 -0.1792  0.3554  0.6272
22340SOL    HW168461   5.758   3.012   1.443 -0.7045 -0.5265  1.4196
22340SOL    HW268462   5.782   3.132   1.532  0.1488 -0.1690  0.7161
22341SOL     OW68463   1.679   7.469   5.176  0.5078  0.5904 -0.2393
22341SOL    HW168464   1.760   7.457   5.227  0.3875 -2.2087 -0.5729
22341SOL    HW268465   1.694   7.419   5.096 -1.4539  0.2191 -0.4113
22342SOL     OW68466   4.901   3.478   8.210 -0.0237  0.0335 -0.4660
22342SOL    HW168467   4.868   3.568   8.222  0.0498  0.4066 -2.6987
22342SOL    HW268468   4.823   3.428   8.185  0.0157 -0.4777  0.3772
22343SOL     OW68469   7.944   1.131   1.090 -0.3858 -0.2627  0.3427
22343SOL    HW168470   7.945   1.067   1.161  0.2205  2.2087  2.7132
22343SOL    HW268471   7.867   1.185   1.107  1.6346  2.5396  1.3159
22344SOL     OW68472   1.156   3.822   7.062 -0.0449  0.2138 -0.1652
22344SOL    HW168473   1.161   3.742   7.115  0.9596  0.4058  0.0372
22344SOL    HW268474   1.241   3.863   7.072  0.0011  0.4983 -1.5702
22345SOL     OW68475   0.327   3.067  11.221  0.3021 -0.0993  0.4500
22345SOL    HW168476   0.242   3.068  11.176  0.4342 -0.9754  0.1611
22345SOL    HW268477   0.310   3.110  11.305 -0.1119  0.9205 -0.1420
22346SOL     OW68478   6.474   2.061   5.638  0.1919  0.1032 -0.1009
22346SOL    HW168479   6.420   2.067   5.559 -0.1749  1.0124  0.2054
22346SOL    HW268480   6.564   2.055   5.605  0.1116  1.3228 -0.5920
22347SOL     OW68481   3.825   3.037  11.545  0.0283  0.4998  0.1808
22347SOL    HW168482   3.881   2.961  11.562 -0.5013 -0.1046 -0.6922
22347SOL    HW268483   3.769   3.010  11.472 -0.6486  1.4864  0.3116
22348SOL     OW68484   7.517   6.639   7.458  0.0447  0.9123 -0.2371
22348SOL    HW168485   7.430   6.677   7.465 -0.7208 -0.6078 -0.9286
22348SOL    HW268486   7.521   6.605   7.368  1.2751  0.7993 -0.1521
22349SOL     OW68487   4.697   5.853   4.804 -0.3106 -0.0035 -0.3669
22349SOL    HW168488   4.690   5.933   4.752 -0.0439  0.4458  0.2809
22349SOL    HW268489   4.690   5.782   4.740 -0.7861  0.5315 -0.9177
22350SOL     OW68490   0.598   7.581   3.933 -0.1664  0.3069 -0.2384
22350SOL    HW168491   0.565   7.666   3.962 -0.0116  0.3084 -0.0656
22350SOL    HW268492   0.656   7.552   4.004 -0.7286 -0.2471  0.0023
22351SOL     OW68493   0.607   3.504   8.476 -0.6481 -0.9102 -0.5994
22351SOL    HW168494   0.641   3.590   8.501  0.6983 -1.9803  1.5891
22351SOL    HW268495   0.518   3.502   8.511 -0.6975 -0.4044 -0.6927
22352SOL     OW68496   6.491   4.679  11.336  0.3027 -0.0381  0.7493
22352SOL    HW168497   6.502   4.757  11.283  0.9278 -1.3900 -1.2129
22352SOL    HW268498   6.474   4.712  11.424  2.1893  2.2785  0.3396
22353SOL     OW68499   6.993   7.502   3.997  0.3425 -0.4273  0.9701
22353SOL    HW168500   7.012   7.449   3.919 -1.0408  0.7487 -0.2186
22353SOL    HW268501   7.079   7.533   4.026  0.8677 -0.7415 -0.1941
22354SOL     OW68502   5.049   4.269   1.303 -0.2690 -0.1594  0.2387
22354SOL    HW168503   5.055   4.348   1.249  0.0499  0.6992  1.4919
22354SOL    HW268504   5.097   4.203   1.253 -1.6339  0.0437 -1.4524
22355SOL     OW68505   3.022   6.666   3.235 -0.4135  0.4909  0.2636
22355SOL    HW168506   3.058   6.597   3.180 -2.1506  0.7023 -1.2376
22355SOL    HW268507   3.096   6.697   3.287  1.3945  0.4332 -2.1141
22356SOL     OW68508   1.032   2.702   3.569  0.0419 -0.3927 -0.3208
22356SOL    HW168509   0.988   2.749   3.639 -1.8228 -0.8861 -1.0937
22356SOL    HW268510   1.099   2.650   3.614  0.0516  0.5937  0.8701
22357SOL     OW68511   7.482   1.041   5.180  0.0131  0.0770  0.2127
22357SOL    HW168512   7.474   1.007   5.269  0.8906 -0.7496 -0.0112
22357SOL    HW268513   7.397   1.021   5.139  0.3824 -1.5642  0.1985
22358SOL     OW68514   0.036   7.683  11.639 -0.2001  0.3275 -0.3755
22358SOL    HW168515  -0.051   7.668  11.675 -0.7746  1.0481 -1.3917
22358SOL    HW268516   0.090   7.708  11.714 -0.1539 -2.7325  0.7345
22359SOL     OW68517   6.804   1.193   4.433  0.0542 -0.4685 -0.2050
22359SOL    HW168518   6.816   1.268   4.375  0.1239 -0.7618 -0.5690
22359SOL    HW268519   6.715   1.162   4.415 -0.8535  0.8948  1.5534
22360SOL     OW68520   2.852   5.988  11.161  0.0358  0.3318 -0.3716
22360SOL    HW168521   2.885   5.995  11.071 -1.8375  0.3020 -1.1079
22360SOL    HW268522   2.877   6.071  11.202 -0.6664  1.1148 -1.4820
22361SOL     OW68523   6.243   7.029  12.129  0.4146 -0.5955  0.0252
22361SOL    HW168524   6.297   7.095  12.171  2.2163 -2.1910  0.3576
22361SOL    HW268525   6.161   7.074  12.107  0.7541  1.1612  2.1181
22362SOL     OW68526   7.878   5.997   3.604  0.5391  0.2315  0.2985
22362SOL    HW168527   7.835   5.913   3.620  1.3313 -0.0339  1.1563
22362SOL    HW268528   7.875   6.008   3.509 -1.2622  0.1681  0.3156
22363SOL     OW68529   7.698   3.738   4.754 -0.1000 -0.2045 -0.0114
22363SOL    HW168530   7.736   3.658   4.791 -0.1600 -0.6834 -0.9510
22363SOL    HW268531   7.631   3.707   4.694  1.8761  0.3831 -2.7189
22364SOL     OW68532   1.757   3.517   9.247 -0.7236  0.5047  0.6045
22364SOL    HW168533   1.842   3.558   9.234 -0.3144 -0.0779  1.3479
22364SOL    HW268534   1.772   3.451   9.315 -1.2437 -1.1789 -0.8187
22365SOL     OW68535   7.552   3.104  12.032 -0.3543  0.5322 -0.7467
22365SOL    HW168536   7.586   3.076  11.947  0.0362 -1.2675 -0.0444
22365SOL    HW268537   7.599   3.186  12.051 -0.4703  0.9827 -2.2390
22366SOL     OW68538   7.817   7.704   2.638  0.2368  0.4039 -0.0753
22366SOL    HW168539   7.734   7.753   2.641 -0.2747 -0.4052 -0.6489
22366SOL    HW268540   7.857   7.730   2.555 -0.0221 -0.1201 -0.3670
22367SOL     OW68541   1.460   5.324   2.324  0.1649 -0.2648 -0.0104
22367SOL    HW168542   1.404   5.370   2.261  1.8916 -1.0583 -2.3139
22367SOL    HW268543   1.476   5.387   2.393 -2.7335  0.2864  0.2576
22368SOL     OW68544   1.913   6.233  11.115  0.2167  0.3755 -0.2174
22368SOL    HW168545   1.960   6.304  11.072  1.1299 -0.1771 -0.1678
22368SOL    HW268546   1.869   6.274  11.189 -0.5772  1.1619 -1.1105
22369SOL     OW68547   3.328   1.292  11.635  0.3102  0.1205 -0.0662
22369SOL    HW168548   3.403   1.353  11.634 -0.9441  1.7371 -0.3876
22369SOL    HW268549   3.282   1.312  11.716 -0.7748  0.4623 -0.7437
22370SOL     OW68550   7.521   0.904   8.332  0.3323  0.2202 -0.1772
22370SOL    HW168551   7.605   0.948   8.314  1.2189  0.5004  3.7855
22370SOL    HW268552   7.546   0.818   8.365 -1.1264 -0.6041 -1.1019
22371SOL     OW68553   6.169   3.316   2.561 -0.1693  0.3029 -0.4139
22371SOL    HW168554   6.076   3.337   2.552 -0.2697  0.0427 -0.0277
22371SOL    HW268555   6.199   3.298   2.471 -1.0094 -1.7018 -0.3485
22372SOL     OW68556   0.376   5.712   2.317 -0.1223  0.1139 -0.0113
22372SOL    HW168557   0.397   5.790   2.368 -1.3712 -0.7235  1.9252
22372SOL    HW268558   0.280   5.704   2.324 -0.0781 -1.2741 -0.6279
22373SOL     OW68559   3.642   4.843   2.996  0.0145 -0.5359 -0.2498
22373SOL    HW168560   3.551   4.815   2.990  0.0962 -0.6907 -0.8736
22373SOL    HW268561   3.648   4.919   2.938 -0.5236  1.7089  2.4257
22374SOL     OW68562   1.423   1.264   4.490  0.0188 -0.3192  0.9455
22374SOL    HW168563   1.444   1.358   4.488  2.4108 -0.7935  0.3584
22374SOL    HW268564   1.342   1.259   4.540  0.2522  1.9936  1.6981
22375SOL     OW68565   0.431   5.718   6.812  0.2357  0.3937  0.1880
22375SOL    HW168566   0.491   5.695   6.741 -0.1466  0.2636 -0.0948
22375SOL    HW268567   0.449   5.654   6.881  1.1819  1.0108  0.5486
22376SOL     OW68568   7.560   2.473   9.765 -0.2951  0.4267  0.3809
22376SOL    HW168569   7.523   2.485   9.677  0.8491 -0.2707 -0.2165
22376SOL    HW268570   7.486   2.489   9.824 -0.9181  1.5854 -0.6699
22377SOL     OW68571   7.945   3.174   4.042  0.0343 -0.0069 -0.0486
22377SOL    HW168572   7.912   3.086   4.062 -0.1131  0.2840  1.0611
22377SOL    HW268573   7.873   3.216   3.996 -0.1841 -0.2223  0.0906
22378SOL     OW68574   1.117   1.897  11.964 -0.1834  0.0297 -0.4564
22378SOL    HW168575   1.139   1.917  12.055 -0.1839  1.9455 -0.8364
22378SOL    HW268576   1.034   1.941  11.948 -0.9510 -1.5308 -0.9928
22379SOL     OW68577   1.370   2.410   3.947  0.4121 -0.2835 -0.0526
22379SOL    HW168578   1.365   2.473   4.019  0.8113 -1.7672  1.3242
22379SOL    HW268579   1.357   2.463   3.868 -1.8654  1.1413  1.1653
22380SOL     OW68580   2.003   7.966  11.591 -0.2234  0.4561 -0.8617
22380SOL    HW168581   1.967   7.912  11.521 -0.3557 -0.3966 -0.1466
22380SOL    HW268582   2.092   7.933  11.604 -0.7931 -0.6382  0.5902
22381SOL     OW68583   1.099   5.975  11.287  0.3730  0.5165 -0.1003
22381SOL    HW168584   1.192   5.983  11.267  1.2097 -4.7682  0.0476
22381SOL    HW268585   1.059   5.947  11.204 -0.9754  1.8923  0.0439
22382SOL     OW68586   0.008   1.115   6.167 -0.5998  0.3093 -0.2043
22382SOL    HW168587   0.007   1.177   6.095  0.2478  0.3184 -0.2171
22382SOL    HW268588   0.034   1.032   6.127 -2.2350 -0.2071 -0.2856
22383SOL     OW68589   1.891   6.138   9.840 -0.0509 -0.0339  0.0464
22383SOL    HW168590   1.981   6.151   9.809 -0.4212  2.3008 -0.2558
22383SOL    HW268591   1.852   6.079   9.776  1.2172 -1.0254  0.1399
22384SOL     OW68592   3.353   4.654   1.525  0.1524  0.1865 -0.3229
22384SOL    HW168593   3.390   4.587   1.467 -0.9218 -1.3601  0.7200
22384SOL    HW268594   3.399   4.734   1.500  0.6514 -0.6776 -2.4136
22385SOL     OW68595   7.211   1.468  11.334 -0.6371  0.3609  0.6464
22385SOL    HW168596   7.206   1.383  11.290  0.3152  0.6442 -0.0309
22385SOL    HW268597   7.245   1.447  11.421 -2.1053 -0.1469  1.1220
22386SOL     OW68598   5.706   2.552   5.049 -0.4856 -0.4476  0.0006
22386SOL    HW168599   5.633   2.499   5.015 -3.0871  1.1343  2.6415
22386SOL    HW268600   5.750   2.495   5.112 -0.9719 -0.6509  0.1632
22387SOL     OW68601   5.858   5.260   0.321 -0.1272 -0.3205 -0.3917
22387SOL    HW168602   5.876   5.175   0.362 -0.3513  0.1588  0.7591
22387SOL    HW268603   5.775   5.247   0.276 -0.5656 -0.4977  0.4472
22388SOL     OW68604   0.163   0.926   2.297  0.1710 -0.5672  0.3320
22388SOL    HW168605   0.129   1.010   2.267  0.3626 -0.4812  0.3577
22388SOL    HW268606   0.108   0.903   2.372 -0.6922 -1.0644 -0.4401
22389SOL     OW68607   1.579   1.924   9.920  0.6782  0.2054 -0.0108
22389SOL    HW168608   1.636   1.849   9.901 -0.5145 -0.3380 -1.7112
22389SOL    HW268609   1.578   1.975   9.839 -2.3689 -0.6198 -0.6243
22390SOL     OW68610   6.266   1.310   7.566  0.1435 -0.0484  0.3482
22390SOL    HW168611   6.320   1.280   7.639 -0.0582 -1.6371 -0.1148
22390SOL    HW268612   6.176   1.296   7.595  0.0560 -0.4074 -0.0804
22391SOL     OW68613   0.250   4.495  11.266  0.1765 -0.4091 -0.4303
22391SOL    HW168614   0.328   4.549  11.255 -0.4376  0.8004  0.7847
22391SOL    HW268615   0.177   4.557  11.267 -0.6518 -1.3430  0.0535
22392SOL     OW68616   0.752   5.682   1.139  0.3344 -0.2958 -0.1357
22392SOL    HW168617   0.821   5.645   1.194  0.7446  2.7832  1.6037
22392SOL    HW268618   0.673   5.634   1.164  0.6530  0.4755  2.6579
22393SOL     OW68619   0.201   2.683   5.712  0.8242  0.0245  0.6446
22393SOL    HW168620   0.115   2.642   5.726  0.6095  0.4640  0.6286
22393SOL    HW268621   0.207   2.749   5.780  0.2902  1.3637 -0.5533
22394SOL     OW68622   3.795   4.647  10.765 -0.1447  0.3580 -0.2428
22394SOL    HW168623   3.874   4.620  10.719 -0.4225 -0.2469 -0.3778
22394SOL    HW268624   3.775   4.734  10.730 -1.4589 -0.8590 -2.8112
22395SOL     OW68625   2.045   5.980   7.616  0.4068 -0.4205 -0.4303
22395SOL    HW168626   2.123   5.927   7.601  0.3309 -0.0449 -2.5533
22395SOL    HW268627   2.033   5.981   7.711  1.0899 -3.2038 -0.2333
22396SOL     OW68628   2.457   3.055  11.985  0.0911 -0.2816  0.0844
22396SOL    HW168629   2.423   2.974  12.023 -0.5323 -0.2213 -0.3228
22396SOL    HW268630   2.521   3.087  12.049 -0.8254 -0.2571  1.0081
22397SOL     OW68631   6.215   1.880   0.729  0.2058 -0.2987 -0.3538
22397SOL    HW168632   6.292   1.925   0.694  0.7764 -1.5477 -0.7632
22397SOL    HW268633   6.150   1.886   0.659  0.4682 -0.5819 -0.6259
22398SOL     OW68634   0.243   7.520   0.125  0.3042 -0.6267  0.6846
22398SOL    HW168635   0.218   7.606   0.160  2.2224  0.3205 -0.0721
22398SOL    HW268636   0.339   7.521   0.129  0.6185 -1.0596 -3.0272
22399SOL     OW68637   2.391   3.232   0.582 -0.0536 -0.1607 -0.1259
22399SOL    HW168638   2.305   3.190   0.589 -0.6334  1.0695  0.5181
22399SOL    HW268639   2.439   3.179   0.518 -1.0397 -1.2771  0.0258
22400SOL     OW68640   0.937   5.690  11.368  0.5934 -0.7238 -0.2007
22400SOL    HW168641   0.929   5.699  11.274  1.3924  1.5811 -0.1086
22400SOL    HW268642   0.935   5.779  11.402  0.9863 -1.4351  1.9088
22401SOL     OW68643   2.852   7.383   3.014  0.1772 -0.5181  0.5967
22401SOL    HW168644   2.757   7.392   3.019  0.0072 -1.2583 -0.7644
22401SOL    HW268645   2.886   7.470   3.037 -0.8686  0.0267  0.1219
22402SOL     OW68646   4.064   2.364   0.118  0.2654  0.1756 -0.8139
22402SOL    HW168647   3.976   2.372   0.080 -1.2158  1.6573  2.5453
22402SOL    HW268648   4.097   2.454   0.122  0.1369  0.1705  1.6731
22403SOL     OW68649   7.251   0.382   4.039 -0.1260  0.5447  0.0288
22403SOL    HW168650   7.209   0.311   4.087  0.7515  0.0073  0.0341
22403SOL    HW268651   7.187   0.407   3.973 -0.3381 -0.4611 -0.1660
22404SOL     OW68652   5.368   7.814   2.805 -0.3500  0.5623  0.1412
22404SOL    HW168653   5.393   7.763   2.728  2.5693  0.4711  1.0504
22404SOL    HW268654   5.273   7.800   2.813 -0.0377 -3.1026 -0.7850
22405SOL     OW68655   3.273   6.253  11.106 -0.2951 -0.1355  0.2560
22405SOL    HW168656   3.308   6.201  11.178 -0.8855 -1.0896 -0.1256
22405SOL    HW268657   3.253   6.338  11.145 -1.1527 -0.8192  1.3660
22406SOL     OW68658   0.385   7.588  11.821 -0.3428  0.3410 -0.2069
22406SOL    HW168659   0.331   7.547  11.754  2.6878 -1.1667 -1.9548
22406SOL    HW268660   0.368   7.539  11.901 -3.5453  1.7591  0.1122
22407SOL     OW68661   4.683   7.853   0.084  0.0304  0.0300  0.2432
22407SOL    HW168662   4.778   7.856   0.072  0.0709 -1.1412  0.1956
22407SOL    HW268663   4.651   7.931   0.039  0.6652 -1.3917 -2.9457
22408SOL     OW68664   3.669   2.884  12.377  0.1216 -1.0683  0.2606
22408SOL    HW168665   3.699   2.837  12.455  1.7869  1.1571  1.0412
22408SOL    HW268666   3.743   2.880  12.317 -0.2063 -0.5529 -0.1856
22409SOL     OW68667   6.565   7.163   8.475  0.6270  0.4384  0.4634
22409SOL    HW168668   6.599   7.166   8.385  0.3022 -0.8865  0.2764
22409SOL    HW268669   6.625   7.104   8.521 -1.6234 -2.4499 -0.0258
22410SOL     OW68670   0.115   0.896   6.052 -0.1882 -0.4036 -0.0154
22410SOL    HW168671   0.194   0.907   6.000  1.1240 -1.6933  1.5917
22410SOL    HW268672   0.045   0.887   5.987  0.8962  1.0966 -1.4729
22411SOL     OW68673   6.549   2.419   9.915 -0.2350  0.0834 -0.6438
22411SOL    HW168674   6.503   2.337   9.933  1.1100 -0.1430  2.4192
22411SOL    HW268675   6.639   2.393   9.894  0.0106  0.7524 -0.4645
22412SOL     OW68676   3.758   2.248   4.809 -0.8123 -0.6012  0.4412
22412SOL    HW168677   3.707   2.286   4.737 -0.0242 -0.3959 -0.0309
22412SOL    HW268678   3.722   2.288   4.888 -0.7274  0.3074  0.0405
22413SOL     OW68679   4.766   1.790   2.357 -0.0774 -0.6140 -0.2297
22413SOL    HW168680   4.714   1.841   2.295 -1.0656  1.7183  2.3230
22413SOL    HW268681   4.709   1.718   2.383 -1.2785  0.7290  0.9676
22414SOL     OW68682   6.313   1.458   0.285  0.3139  0.5600  0.2356
22414SOL    HW168683   6.281   1.445   0.196 -0.8564 -0.0553  0.7199
22414SOL    HW268684   6.406   1.477   0.275  0.2996  0.0314 -1.0808
22415SOL     OW68685   5.010   7.865   1.848  0.6451  0.1937  0.0296
22415SOL    HW168686   5.051   7.802   1.788  0.2779 -0.1180  0.1077
22415SOL    HW268687   5.082   7.924   1.872  1.1378 -0.5257  0.3975
22416SOL     OW68688   0.468   2.773   4.428  0.1551  0.2620 -0.0654
22416SOL    HW168689   0.408   2.760   4.501  1.1087  0.7794  0.8298
22416SOL    HW268690   0.416   2.753   4.350 -0.9541 -0.0181  0.7337
22417SOL     OW68691   2.728   1.667   4.540 -0.3165 -0.4582  0.3872
22417SOL    HW168692   2.821   1.666   4.563  0.6288  0.3006 -2.7986
22417SOL    HW268693   2.700   1.576   4.548  0.3925 -0.5511  2.2747
22418SOL     OW68694   4.000   6.419   5.556  0.5214 -0.0728  0.1340
22418SOL    HW168695   4.019   6.449   5.644 -0.3289 -0.0213  0.3062
22418SOL    HW268696   3.972   6.328   5.567 -0.8486  0.3267  0.0728
22419SOL     OW68697   5.121   6.542   8.301 -0.3636  0.3555  0.3620
22419SOL    HW168698   5.194   6.576   8.353 -0.6164 -0.6956  1.4457
22419SOL    HW268699   5.070   6.620   8.279  0.2781  0.9392  0.8709
22420SOL     OW68700   0.010   5.250   6.595  0.0231  0.1576 -0.2645
22420SOL    HW168701   0.047   5.237   6.682 -0.7651  3.6968  0.7571
22420SOL    HW268702   0.012   5.344   6.581 -0.3473 -0.2142 -3.9360
22421SOL     OW68703   4.849   7.254   1.114 -0.1504  0.0301 -0.5407
22421SOL    HW168704   4.810   7.259   1.202  1.2995 -1.7834  0.2771
22421SOL    HW268705   4.812   7.173   1.077 -0.2458  0.4402 -1.3643
22422SOL     OW68706   6.355   6.527   8.282 -0.1485  0.1050  0.3749
22422SOL    HW168707   6.449   6.519   8.262 -0.0879  1.4151  0.0943
22422SOL    HW268708   6.348   6.498   8.373  0.9510  2.3357  1.2576
22423SOL     OW68709   0.212   1.529   2.029  0.1696 -0.0881 -0.1213
22423SOL    HW168710   0.208   1.623   2.015 -1.3533 -0.2033 -0.6228
22423SOL    HW268711   0.274   1.518   2.100  0.0279  1.3343  0.2469
22424SOL     OW68712   6.738   6.674   8.612 -0.6204 -0.5152  0.2861
22424SOL    HW168713   6.758   6.590   8.653 -0.9191 -0.4121  0.6527
22424SOL    HW268714   6.644   6.686   8.629 -0.5306 -0.0047  0.4310
22425SOL     OW68715   6.638   0.642   8.827 -0.4277 -0.5366 -0.1785
22425SOL    HW168716   6.673   0.553   8.817  0.8343  0.1214 -2.1785
22425SOL    HW268717   6.596   0.641   8.913  0.4470 -2.7623  0.3081
22426SOL     OW68718   2.982   7.770   6.812  0.4780 -0.3654  0.4672
22426SOL    HW168719   3.056   7.825   6.839  1.1769 -0.7967 -0.5122
22426SOL    HW268720   3.015   7.681   6.819  0.9873 -0.5045 -2.4236
22427SOL     OW68721   1.397   5.125   3.179  0.3401 -0.4076  0.1020
22427SOL    HW168722   1.451   5.203   3.171  1.9292 -1.5320 -0.6300
22427SOL    HW268723   1.387   5.112   3.274  2.4415 -0.8613  0.2991
22428SOL     OW68724   5.754   0.431   1.296  0.0258  0.2056  0.1511
22428SOL    HW168725   5.675   0.413   1.245  0.3237  2.4996 -1.2488
22428SOL    HW268726   5.820   0.372   1.259 -0.5231 -0.3022 -0.0327
22429SOL     OW68727   1.461   5.222   7.318  0.1726 -0.2310 -0.3101
22429SOL    HW168728   1.536   5.193   7.267 -0.2016 -0.8531 -0.5237
22429SOL    HW268729   1.401   5.259   7.253 -0.9978 -2.4604 -0.5945
22430SOL     OW68730   6.905   0.852  11.699 -0.0409  0.1509 -0.0251
22430SOL    HW168731   6.847   0.874  11.772  0.8573  1.5878  0.3134
22430SOL    HW268732   6.961   0.783  11.733 -0.3865  0.0056  0.2551
22431SOL     OW68733   3.537   2.339   0.474  0.1253  0.5032  0.0325
22431SOL    HW168734   3.542   2.263   0.416  2.5260  1.2612 -0.8665
22431SOL    HW268735   3.597   2.319   0.545 -1.1545  0.5274  1.1594
22432SOL     OW68736   0.653   5.896  12.243 -0.0686 -0.1443 -0.2511
22432SOL    HW168737   0.624   5.806  12.234  0.1928 -0.1710 -0.9255
22432SOL    HW268738   0.699   5.899  12.327 -1.5760 -0.2120  0.5988
22433SOL     OW68739   5.084   5.418   0.398 -0.6808  0.4116  0.1469
22433SOL    HW168740   5.041   5.499   0.370 -0.5291  0.9858  1.5028
22433SOL    HW268741   5.175   5.429   0.370 -0.5016  1.0367  0.9376
22434SOL     OW68742   4.072   1.045  12.434 -0.0961 -0.0004  0.7614
22434SOL    HW168743   4.137   1.105  12.398  0.8605 -0.3423  1.8567
22434SOL    HW268744   4.046   0.989  12.361 -0.6142  1.3753 -0.1548
22435SOL     OW68745   2.919   1.077  11.000  0.2606  0.0291  0.3413
22435SOL    HW168746   2.852   1.102  10.937  0.3005 -0.9459 -0.1037
22435SOL    HW268747   2.987   1.144  10.990 -0.2551  0.5312  0.1746
22436SOL     OW68748   2.504   5.443   2.872 -0.5925 -0.3723  0.1290
22436SOL    HW168749   2.599   5.450   2.878 -0.5969 -0.3980  0.2379
22436SOL    HW268750   2.479   5.506   2.805 -0.5374 -0.0795  0.3819
22437SOL     OW68751   7.927   0.928   5.075 -0.0689  0.2961 -0.4108
22437SOL    HW168752   7.957   0.844   5.108 -0.8763 -0.6280 -1.9193
22437SOL    HW268753   7.949   0.927   4.982 -0.3616  1.6381 -0.5180
22438SOL     OW68754   3.730   7.342   1.603  0.4844  0.0027 -0.1642
22438SOL    HW168755   3.786   7.305   1.534 -0.8022 -0.3046 -1.0872
22438SOL    HW268756   3.791   7.386   1.662  1.7456 -0.7577 -0.8463
22439SOL     OW68757   7.588   1.846   8.748  0.5496 -0.0107 -0.5203
22439SOL    HW168758   7.586   1.784   8.821  0.3980  1.0104  0.3630
22439SOL    HW268759   7.506   1.830   8.701  0.4455 -0.3710 -0.2209
22440SOL     OW68760   2.817   0.849   0.547  0.0589  0.1514 -0.6321
22440SOL    HW168761   2.819   0.811   0.635 -2.4960  0.2518 -0.4783
22440SOL    HW268762   2.872   0.928   0.555  0.7288 -0.3994  0.5678
22441SOL     OW68763   2.541   4.455  11.434 -0.1785  0.2128  0.0996
22441SOL    HW168764   2.573   4.408  11.512 -0.5050 -1.0509 -0.5001
22441SOL    HW268765   2.616   4.507  11.406 -0.1495  0.9315  1.4302
22442SOL     OW68766   7.806   2.294   0.855  0.4989 -0.1906  0.9774
22442SOL    HW168767   7.721   2.264   0.823  0.4712  1.3382 -0.4641
22442SOL    HW268768   7.845   2.341   0.782  1.5927  1.1720  2.3631
22443SOL     OW68769   0.381   5.728   1.257 -0.1874 -0.3421  0.1047
22443SOL    HW168770   0.308   5.768   1.303  0.0301 -0.7652  0.8230
22443SOL    HW268771   0.372   5.758   1.166  0.3329  1.8808  0.7316
22444SOL     OW68772   4.000   1.562   9.787 -0.9935 -0.0063 -0.1398
22444SOL    HW168773   3.999   1.628   9.717  1.4831 -1.1107 -1.3483
22444SOL    HW268774   4.058   1.599   9.854 -1.2494 -0.0652  0.1126
22445SOL     OW68775   4.367   2.519   1.104 -0.8266  0.1042 -0.1223
22445SOL    HW168776   4.303   2.589   1.114 -0.5204  0.3820 -0.0681
22445SOL    HW268777   4.429   2.533   1.176 -1.8664 -1.4404  1.1282
22446SOL     OW68778   0.626   1.997   5.594  0.4127  0.0049  0.3124
22446SOL    HW168779   0.664   2.079   5.563  0.2148  0.0428  0.1766
22446SOL    HW268780   0.642   1.934   5.524 -0.4040  0.1917 -0.0455
22447SOL     OW68781   4.642   7.720   3.209  0.2941  0.1640 -0.3073
22447SOL    HW168782   4.618   7.802   3.252  0.2049 -0.1012  0.1623
22447SOL    HW268783   4.564   7.695   3.160  0.5058  0.6367 -0.9026
22448SOL     OW68784   5.608   6.341  12.043  0.0773 -0.4707  0.4715
22448SOL    HW168785   5.694   6.382  12.053 -0.0283 -0.3413  0.8456
22448SOL    HW268786   5.568   6.387  11.969  0.9870 -1.6525 -0.8220
22449SOL     OW68787   4.077   7.237   3.205 -0.4592  0.4851  0.6897
22449SOL    HW168788   4.049   7.248   3.114  0.7488 -0.0099  0.2262
22449SOL    HW268789   4.069   7.143   3.221  3.2533 -0.1877 -0.3645
22450SOL     OW68790   6.322   0.762   5.465 -0.3599  0.1297 -0.8880
22450SOL    HW168791   6.319   0.719   5.551 -0.6571 -0.4108 -1.1621
22450SOL    HW268792   6.242   0.732   5.421 -0.3731  0.6595 -1.2321
22451SOL     OW68793   6.495   6.436   6.373  0.0427  0.0766  0.2707
22451SOL    HW168794   6.405   6.449   6.404  0.0535 -1.5894  1.0687
22451SOL    HW268795   6.510   6.511   6.315 -1.7945  0.4958  0.2517
22452SOL     OW68796   7.812   0.769   8.014  0.7031  0.0095 -0.2074
22452SOL    HW168797   7.851   0.855   8.031 -1.3934  0.6817  1.6891
22452SOL    HW268798   7.828   0.753   7.921  0.3059  2.9066 -0.8576
22453SOL     OW68799   6.674   4.328  11.601 -0.4230 -0.3440 -0.3891
22453SOL    HW168800   6.614   4.402  11.610  0.3710  0.2434  0.2967
22453SOL    HW268801   6.757   4.368  11.576 -0.1781 -1.0901 -0.7858
22454SOL     OW68802   2.043   0.861   1.482  0.1558 -0.3608 -0.3363
22454SOL    HW168803   2.071   0.770   1.481  1.1619 -0.0740  0.7032
22454SOL    HW268804   2.106   0.906   1.426  0.9935  0.0474  0.8933
22455SOL     OW68805   3.732   0.047  12.063 -0.0180  0.0502 -0.0667
22455SOL    HW168806   3.794  -0.011  12.107  1.4054  2.7525  1.8482
22455SOL    HW268807   3.780   0.080  11.987  0.9085  1.8780  1.2267
22456SOL     OW68808   7.727   6.296   8.221 -0.4749  0.0078  0.1082
22456SOL    HW168809   7.823   6.304   8.222 -0.5084  0.5658 -0.5484
22456SOL    HW268810   7.707   6.255   8.137 -0.8478  0.5488 -0.0786
22457SOL     OW68811   5.479   6.155   5.885  0.5037  0.0610 -0.3546
22457SOL    HW168812   5.489   6.109   5.968  1.1007 -1.2381 -1.1090
22457SOL    HW268813   5.404   6.213   5.899  0.5191 -0.2146  1.0433
22458SOL     OW68814   3.496   5.026   0.660 -0.0630  0.1633  0.0925
22458SOL    HW168815   3.491   4.935   0.629  1.6628 -0.2977  1.0495
22458SOL    HW268816   3.527   5.075   0.584 -0.8628 -0.0439 -0.3886
22459SOL     OW68817   4.876   1.524   6.587 -0.3856  0.1723 -0.0275
22459SOL    HW168818   4.870   1.460   6.659 -0.3902  0.8380  0.5719
22459SOL    HW268819   4.795   1.574   6.592 -0.1855  0.5185 -0.2174
22460SOL     OW68820   4.570   4.318   9.520 -0.0021 -0.1028 -0.1398
22460SOL    HW168821   4.604   4.259   9.587 -0.9013  1.7110  2.0400
22460SOL    HW268822   4.477   4.329   9.542 -0.3208  0.5722 -1.6840
22461SOL     OW68823   7.446   2.494   6.420 -0.2267  0.0606 -0.2016
22461SOL    HW168824   7.470   2.470   6.331  0.3165  0.2621 -0.1139
22461SOL    HW268825   7.483   2.581   6.432  1.0974 -0.6044  0.7498
22462SOL     OW68826   5.935   6.201   6.084  0.2898  0.3005 -0.6431
22462SOL    HW168827   5.958   6.202   5.991  0.7430  1.5507 -0.5379
22462SOL    HW268828   6.015   6.227   6.129  0.6902 -2.2752  0.2812
22463SOL     OW68829   2.035   3.664   3.756  0.3662 -0.1544 -0.1342
22463SOL    HW168830   1.952   3.683   3.799  0.3786 -0.6750  0.1233
22463SOL    HW268831   2.011   3.622   3.674  0.3945 -1.8475  0.6896
22464SOL     OW68832   7.540   0.483   3.450  0.5662 -0.1682  0.1188
22464SOL    HW168833   7.473   0.532   3.402  1.3148 -0.0099 -0.7984
22464SOL    HW268834   7.618   0.539   3.448  0.4993  0.0632  1.9665
22465SOL     OW68835   5.491   6.847   6.219  0.4803  0.4484 -0.0829
22465SOL    HW168836   5.524   6.832   6.130  1.6370 -0.5902  0.4877
22465SOL    HW268837   5.521   6.935   6.240  1.0848  0.3203 -0.3652
22466SOL     OW68838   6.713   3.689   6.525 -0.6210  0.0542  0.1414
22466SOL    HW168839   6.657   3.635   6.469  0.7270 -1.3662  0.1170
22466SOL    HW268840   6.799   3.648   6.521  0.4043  2.0567  0.3519
22467SOL     OW68841   3.275   6.478   3.278 -0.2681  0.0274 -0.5323
22467SOL    HW168842   3.234   6.472   3.364  1.3168  0.2419  0.2651
22467SOL    HW268843   3.307   6.569   3.273  2.0597 -0.7082 -0.1638
22468SOL     OW68844   1.174   5.837   1.754 -0.7702 -0.1400  0.3887
22468SOL    HW168845   1.223   5.847   1.672 -1.8434  0.1419 -0.2396
22468SOL    HW268846   1.184   5.922   1.798 -0.6084 -0.1192  0.3149
22469SOL     OW68847   6.739   1.694   5.485  0.4375 -0.0267  0.3513
22469SOL    HW168848   6.677   1.725   5.551 -0.2439  1.2151 -0.8243
22469SOL    HW268849   6.727   1.599   5.484 -0.0306  0.0031  1.5111
22470SOL     OW68850   6.449   5.563  11.457 -0.3250 -0.1876 -0.0285
22470SOL    HW168851   6.430   5.656  11.466  0.1840 -0.0806 -0.0274
22470SOL    HW268852   6.540   5.559  11.426 -0.3159 -0.6829  0.0420
22471SOL     OW68853   7.147   5.491   8.994 -1.0234 -0.0358 -0.2147
22471SOL    HW168854   7.055   5.514   9.010 -0.4189  0.8596  2.5062
22471SOL    HW268855   7.155   5.489   8.899 -3.7080  0.4349 -0.5351
22472SOL     OW68856   3.905   5.075  11.285 -0.1703 -0.3532 -0.0397
22472SOL    HW168857   3.860   4.998  11.250 -0.2534  0.1630 -1.1228
22472SOL    HW268858   3.973   5.039  11.343  0.1375 -1.2762 -0.9398
22473SOL     OW68859   1.411   0.782   9.915  0.2999  0.1736 -0.1714
22473SOL    HW168860   1.386   0.727   9.841 -0.3531 -1.9706  1.5394
22473SOL    HW268861   1.329   0.794   9.964  0.9380  0.5833  0.8133
22474SOL     OW68862   1.715   6.694   9.330 -0.3448 -0.5394  0.0149
22474SOL    HW168863   1.754   6.759   9.272 -2.9803 -0.6033 -1.9911
22474SOL    HW268864   1.779   6.623   9.332  0.8496  0.4529 -0.8963
22475SOL     OW68865   5.946   0.150   2.904  0.9090 -0.2805  0.1526
22475SOL    HW168866   5.925   0.225   2.849  0.2226  0.0508  0.8456
22475SOL    HW268867   5.995   0.091   2.847  0.7299  0.3197 -0.6358
22476SOL     OW68868   7.826   0.587   6.851  0.2344  0.0955  0.4468
22476SOL    HW168869   7.883   0.659   6.878 -0.6408  0.5826  1.0860
22476SOL    HW268870   7.810   0.603   6.758  2.2422 -0.8555 -0.1024
22477SOL     OW68871   5.734   2.199   5.855  0.0426 -0.0422  0.1324
22477SOL    HW168872   5.648   2.195   5.896 -0.2635  1.2086 -0.3529
22477SOL    HW268873   5.750   2.110   5.825 -1.3393 -0.1738 -0.2751
22478SOL     OW68874   3.163   7.954   6.930  0.2871  0.3368  0.1513
22478SOL    HW168875   3.218   8.028   6.904  1.1705 -0.2831  0.2145
22478SOL    HW268876   3.163   7.956   7.025  0.8968 -0.1658  0.1622
22479SOL     OW68877   3.454   0.010   6.187 -0.7432 -0.0921 -0.1000
22479SOL    HW168878   3.416  -0.076   6.166  0.9245 -1.1553  0.9590
22479SOL    HW268879   3.543   0.006   6.152 -0.5640  1.1311  0.1697
22480SOL     OW68880   5.439   7.587   5.189  0.4835  0.4440  0.3849
22480SOL    HW168881   5.505   7.595   5.258  0.0090 -0.5665  0.9702
22480SOL    HW268882   5.362   7.632   5.223  0.7050  1.1953 -0.0935
22481SOL     OW68883   4.121   2.662   3.875 -0.6740  0.2716  0.0865
22481SOL    HW168884   4.183   2.698   3.812 -0.5392  0.7587  0.4988
22481SOL    HW268885   4.159   2.577   3.899  0.6249  1.1899  1.4545
22482SOL     OW68886   1.028   3.159  11.479  0.9265 -0.1048 -0.3224
22482SOL    HW168887   1.003   3.108  11.402 -0.6688 -1.3665  0.9572
22482SOL    HW268888   1.015   3.250  11.453 -0.7713 -0.5559 -1.1989
22483SOL     OW68889   5.423   0.065   1.784  0.3397  0.1119  0.0155
22483SOL    HW168890   5.454   0.139   1.732  0.2572  0.8862  1.0471
22483SOL    HW268891   5.486  -0.005   1.765  1.1573  0.8327  0.0026
22484SOL     OW68892   2.892   0.912   1.318  0.5369 -0.6336 -0.3077
22484SOL    HW168893   2.981   0.940   1.343  0.6024 -1.0396 -0.0827
22484SOL    HW268894   2.889   0.819   1.340 -0.6091 -0.1951  1.5768
22485SOL     OW68895   2.826   2.005   4.556  0.1370 -0.0404  0.3277
22485SOL    HW168896   2.845   1.918   4.592 -1.3486 -0.1958  0.8076
22485SOL    HW268897   2.771   2.047   4.622  0.8628  1.2963  0.1177
22486SOL     OW68898   4.289   7.857  10.505  0.5947  1.0465  0.1487
22486SOL    HW168899   4.271   7.793  10.437 -0.4110 -0.3163  1.6282
22486SOL    HW268900   4.384   7.867  10.505  0.8997 -1.3426  0.6220
22487SOL     OW68901   2.063   7.901   8.228 -0.3513  0.2435 -0.2252
22487SOL    HW168902   2.091   7.824   8.180  0.2338  1.0516 -1.2197
22487SOL    HW268903   1.997   7.942   8.172  0.7763  1.5259 -0.6698
22488SOL     OW68904   2.275   3.997   8.400  0.1476 -0.3630  0.3195
22488SOL    HW168905   2.330   3.930   8.359  1.9102  1.9128 -1.2472
22488SOL    HW268906   2.186   3.961   8.394  1.1138 -2.9972  0.5579
22489SOL     OW68907   7.723   2.074   9.647 -0.2428  0.2698  0.6796
22489SOL    HW168908   7.818   2.066   9.637 -0.2256  0.0935  0.9628
22489SOL    HW268909   7.687   2.015   9.581 -0.1632  0.6649  0.2778
22490SOL     OW68910   0.098   3.293   1.469  0.7285 -0.2240  0.1382
22490SOL    HW168911   0.090   3.384   1.501 -0.0277 -0.4125  0.5256
22490SOL    HW268912   0.192   3.276   1.469  0.8052  0.0664  1.5163
22491SOL     OW68913   1.469   7.940   9.468 -0.2698 -0.2295 -0.3886
22491SOL    HW168914   1.483   7.883   9.544 -0.7441 -0.9957 -0.8640
22491SOL    HW268915   1.550   7.991   9.461  0.4510 -1.3523 -0.3899
22492SOL     OW68916   4.385   4.060   2.082 -0.2657 -0.2949 -0.0347
22492SOL    HW168917   4.385   3.984   2.140 -1.3849 -2.4701 -2.6419
22492SOL    HW268918   4.458   4.045   2.022  0.7082  1.7433  0.5722
22493SOL     OW68919   6.316   1.684   4.592  0.1708 -0.5603  0.1696
22493SOL    HW168920   6.260   1.617   4.553  0.4277 -1.3458  1.1168
22493SOL    HW268921   6.324   1.659   4.684  1.3823  0.0033  0.2402
22494SOL     OW68922   4.896   7.275   2.571  0.3227  0.2779 -0.0331
22494SOL    HW168923   4.957   7.331   2.619  1.1047 -0.4031 -0.2077
22494SOL    HW268924   4.827   7.334   2.541 -0.0493  0.7718  1.6902
22495SOL     OW68925   7.552   5.135   3.426 -0.2952  0.3118 -0.1796
22495SOL    HW168926   7.464   5.148   3.391 -0.8062 -1.7526  0.1837
22495SOL    HW268927   7.561   5.201   3.495 -1.4492  0.7351 -0.4214
22496SOL     OW68928   5.563   6.914   2.848  0.1819  0.3703 -0.6434
22496SOL    HW168929   5.607   6.994   2.876 -1.3683  1.3030 -0.7385
22496SOL    HW268930   5.597   6.897   2.760  0.4387  0.9891 -0.6662
22497SOL     OW68931   0.722   0.906   5.238  0.1291  0.3401 -0.3851
22497SOL    HW168932   0.693   0.914   5.147 -1.8600 -2.4755 -0.1250
22497SOL    HW268933   0.791   0.841   5.236 -0.3528 -0.2056  0.1617
22498SOL     OW68934   1.804   6.505   0.029  0.0136  0.7665  0.1981
22498SOL    HW168935   1.870   6.574   0.030 -1.8380  2.6497 -0.8197
22498SOL    HW268936   1.805   6.472  -0.061 -0.9529  1.3535 -0.0358
22499SOL     OW68937   2.264   7.213   9.340  0.1621  0.5323 -0.4139
22499SOL    HW168938   2.303   7.222   9.253  0.7252  1.3522 -0.0855
22499SOL    HW268939   2.332   7.174   9.394  0.0445  0.6355 -0.1865
22500SOL     OW68940   4.813   4.184   5.479  0.3011  0.3025 -0.0009
22500SOL    HW168941   4.868   4.109   5.501 -0.8783 -0.3412  0.8881
22500SOL    HW268942   4.830   4.200   5.386 -0.4890 -2.0195 -0.6151
22501SOL     OW68943   0.072   4.295   8.407 -0.1384  0.0715  0.2749
22501SOL    HW168944   0.006   4.229   8.431 -1.6767  1.7987  0.9674
22501SOL    HW268945   0.125   4.306   8.486  1.0479 -1.2989 -0.2748
22502SOL     OW68946   1.373   5.955  11.198  0.7965  0.0440  0.4018
22502SOL    HW168947   1.344   5.966  11.108  0.1210 -0.0981  0.5960
22502SOL    HW268948   1.442   5.889  11.194 -0.8766 -1.7955  0.2777
22503SOL     OW68949   7.855   6.901   9.616 -0.1554 -0.0857 -0.2158
22503SOL    HW168950   7.781   6.951   9.581 -0.0719 -0.2554 -0.6335
22503SOL    HW268951   7.920   6.901   9.546  1.9235  3.3845  1.4097
22504SOL     OW68952   6.418   7.379  11.224 -0.5856 -0.8092 -1.2743
22504SOL    HW168953   6.474   7.330  11.163 -0.0761 -0.6841 -0.9221
22504SOL    HW268954   6.475   7.448  11.258 -0.9156 -0.7692 -0.7945
22505SOL     OW68955   4.559   2.411   6.621  0.3405 -0.2410  0.1669
22505SOL    HW168956   4.502   2.454   6.684  0.9268  0.7946  0.0029
22505SOL    HW268957   4.647   2.420   6.657  0.5409 -0.7632 -0.1750
22506SOL     OW68958   1.602   1.174  10.871  0.2270 -0.1788  0.1636
22506SOL    HW168959   1.556   1.168  10.787  0.6902 -0.6061 -0.0671
22506SOL    HW268960   1.690   1.203  10.848  0.4630 -0.6494  0.4662
22507SOL     OW68961   7.415   5.026   2.004 -0.3306 -0.4215  0.3646
22507SOL    HW168962   7.499   5.005   2.044 -0.4100 -0.2216  0.6432
22507SOL    HW268963   7.353   4.965   2.045 -0.4103 -0.2250  0.5417
22508SOL     OW68964   0.674   4.719  11.666  0.3303  0.6105  0.6995
22508SOL    HW168965   0.610   4.667  11.618  2.5158 -0.8076 -0.8659
22508SOL    HW268966   0.715   4.774  11.599  0.7208  1.5312  1.6689
22509SOL     OW68967   5.796   5.898   2.077 -0.5746 -0.3455 -0.0342
22509SOL    HW168968   5.748   5.876   1.997 -0.7492  1.8340 -0.5968
22509SOL    HW268969   5.732   5.942   2.133 -0.2104 -1.0069  0.9197
22510SOL     OW68970   4.906   4.682   6.195 -0.0052  0.1063 -0.0311
22510SOL    HW168971   4.863   4.723   6.270  1.6054  1.3464  0.2835
22510SOL    HW268972   4.998   4.675   6.221  0.0871 -2.3054 -0.7205
22511SOL     OW68973   2.789   2.661   9.794  0.5227  0.1527 -0.4633
22511SOL    HW168974   2.805   2.755   9.795  1.3672  0.0147 -0.2301
22511SOL    HW268975   2.850   2.625   9.859 -0.3825 -0.4699  0.0669
22512SOL     OW68976   4.895   3.877   7.392  0.6741  0.2910  0.3018
22512SOL    HW168977   4.804   3.890   7.364  0.4574 -1.0779  0.3056
22512SOL    HW268978   4.943   3.950   7.352 -0.4299  1.0816  0.3719
22513SOL     OW68979   3.175   6.008   2.811  0.1778  0.2951 -0.2529
22513SOL    HW168980   3.112   6.032   2.879 -0.1239  0.3296 -0.5424
22513SOL    HW268981   3.251   6.063   2.828  0.3178 -0.0869  0.3880
22514SOL     OW68982   3.558   1.715   0.996 -0.1094  0.2649 -0.5436
22514SOL    HW168983   3.533   1.691   0.907 -2.6544  0.5662  0.0214
22514SOL    HW268984   3.477   1.710   1.046  0.7772  2.3752  1.2689
22515SOL     OW68985   3.428   1.921   5.870 -0.0962 -0.1218  0.7753
22515SOL    HW168986   3.508   1.900   5.822  0.8912  0.3671  2.1360
22515SOL    HW268987   3.375   1.842   5.863  0.4055 -0.3804 -0.3303
22516SOL     OW68988   4.168   1.955   8.392 -0.0962 -0.0671 -0.1076
22516SOL    HW168989   4.143   2.001   8.312  0.5387 -1.5824 -1.2175
22516SOL    HW268990   4.139   1.865   8.378 -1.0815 -0.1198  1.9000
22517SOL     OW68991   0.835   5.595  11.137 -0.7463 -0.4207 -0.2306
22517SOL    HW168992   0.869   5.507  11.117  1.4760  0.3669 -0.2086
22517SOL    HW268993   0.836   5.641  11.054  1.5918  0.6341  0.2896
22518SOL     OW68994   0.353   0.180  12.447 -0.0404  0.0959 -0.6537
22518SOL    HW168995   0.340   0.087  12.428  1.1605  0.1535 -1.8785
22518SOL    HW268996   0.381   0.218  12.364 -1.3118  1.7353 -0.3907
22519SOL     OW68997   1.593   4.962   8.964  0.3979 -0.1286 -0.1604
22519SOL    HW168998   1.513   4.920   8.995 -1.5939  1.4507 -2.7211
22519SOL    HW268999   1.653   4.890   8.944 -0.5616 -1.3677  1.2833
22520SOL     OW69000   4.259   2.346  10.320 -0.0183 -0.3443 -0.7485
22520SOL    HW169001   4.271   2.430  10.364 -0.2672 -0.6832 -0.0361
22520SOL    HW269002   4.261   2.281  10.390  1.3727 -1.0547 -1.3920
22521SOL     OW69003   2.993   5.163   8.498  0.0181  0.0175  0.2239
22521SOL    HW169004   3.000   5.246   8.544 -0.5542 -0.8798  2.0368
22521SOL    HW269005   2.933   5.180   8.426  0.9208  1.4682 -0.2190
22522SOL     OW69006   0.968   1.988   4.675 -0.3477 -0.3664  0.4816
22522SOL    HW169007   1.049   1.938   4.664  0.1257  0.4366  0.2272
22522SOL    HW269008   0.935   2.001   4.587  0.2837  0.9537  0.4133
22523SOL     OW69009   4.784   0.404   1.975 -0.3495  0.0452 -0.2711
22523SOL    HW169010   4.698   0.438   1.952 -0.5182  0.0559  0.3631
22523SOL    HW269011   4.838   0.483   1.986 -0.7826  0.1553  1.3666
22524SOL     OW69012   6.593   7.616   2.323 -0.1429  0.1237 -0.3162
22524SOL    HW169013   6.662   7.604   2.257  0.5733  2.0296  0.0005
22524SOL    HW269014   6.522   7.560   2.294  1.1638 -1.1371 -1.2279
22525SOL     OW69015   2.603   1.039   7.724 -0.1955  0.1190  0.5086
22525SOL    HW169016   2.547   0.990   7.665 -0.4578 -0.4566  1.2095
22525SOL    HW269017   2.689   0.997   7.716 -0.2355  0.0297  0.5514
22526SOL     OW69018   0.762   3.231   5.464 -0.0161  1.0501  0.3510
22526SOL    HW169019   0.752   3.169   5.536  1.1638  0.8832  0.3870
22526SOL    HW269020   0.688   3.212   5.406 -0.6089  0.7459  1.1837
22527SOL     OW69021   3.230   7.657   5.654 -0.4101  0.0713 -0.1637
22527SOL    HW169022   3.141   7.623   5.662  0.1221 -1.0739  1.5084
22527SOL    HW269023   3.238   7.720   5.726  0.6471 -1.1543  0.8384
22528SOL     OW69024   1.007   4.382   2.548 -0.0931  0.2711 -0.2256
22528SOL    HW169025   0.993   4.289   2.526 -0.3504 -0.0201  1.0891
22528SOL    HW269026   1.004   4.427   2.463 -1.4624 -0.7339 -0.7578
22529SOL     OW69027   4.131   2.538   0.877 -0.3189  0.1456 -0.0825
22529SOL    HW169028   4.138   2.561   0.970  2.5899  0.8210 -0.3649
22529SOL    HW269029   4.052   2.484   0.872  0.5400 -1.7125  3.1999
22530SOL     OW69030   2.949   0.698   7.275 -0.1281 -0.4347  0.0398
22530SOL    HW169031   3.008   0.623   7.271 -0.2863 -0.5868  0.5127
22530SOL    HW269032   2.990   0.759   7.337  1.7874  1.4610 -2.8442
22531SOL     OW69033   1.740   7.542   2.578  0.2105  0.0680 -0.7359
22531SOL    HW169034   1.820   7.508   2.537  1.4866  1.8804  0.0683
22531SOL    HW269035   1.772   7.599   2.648 -1.8603 -1.2917  1.4490
22532SOL     OW69036   0.476   3.579   0.467  0.2822 -0.2088 -0.3701
22532SOL    HW169037   0.527   3.548   0.542  2.1860 -0.4844 -1.7257
22532SOL    HW269038   0.505   3.525   0.394 -0.1173  1.3364 -1.7270
22533SOL     OW69039   0.955   1.631   5.785 -0.0345  0.0869  0.4621
22533SOL    HW169040   1.024   1.575   5.821 -0.0188  0.4218  0.9524
22533SOL    HW269041   0.958   1.711   5.837 -1.8369 -0.4887  1.5511
22534SOL     OW69042   6.516   3.938   1.551 -0.2917  0.5051  0.4136
22534SOL    HW169043   6.504   3.930   1.646 -0.1882  0.9779  0.4670
22534SOL    HW269044   6.427   3.943   1.516 -0.3268  0.4968  0.5003
22535SOL     OW69045   6.510   0.157   8.185  0.0277 -0.3710 -0.4276
22535SOL    HW169046   6.542   0.227   8.127  0.5670  1.0562  1.4739
22535SOL    HW269047   6.419   0.180   8.202 -0.1125 -0.7569 -0.6456
22536SOL     OW69048   3.689   5.137   6.636 -0.0519 -0.4214 -0.0389
22536SOL    HW169049   3.731   5.136   6.721 -1.0797 -2.0195  0.4896
22536SOL    HW269050   3.605   5.180   6.651 -0.7195 -1.7017  0.0379
22537SOL     OW69051   5.069   0.853   1.450  0.1778 -0.5896 -0.2686
22537SOL    HW169052   5.095   0.804   1.372 -0.3606 -1.9265  0.3787
22537SOL    HW269053   5.134   0.830   1.516 -0.7991 -1.4692  0.4186
22538SOL     OW69054   0.437   2.001   0.660 -0.5307  0.8831  0.3020
22538SOL    HW169055   0.461   1.910   0.678 -1.3838  0.2031 -1.7587
22538SOL    HW269056   0.341   2.001   0.665 -0.5858  1.4336 -0.6456
22539SOL     OW69057   4.545   2.093   0.045 -0.1654  0.3370 -0.4922
22539SOL    HW169058   4.467   2.046   0.015 -1.1238  0.5917  1.4393
22539SOL    HW269059   4.615   2.028   0.041 -1.2006 -0.9338  0.9367
22540SOL     OW69060   0.682   5.844   4.824 -0.0076  0.0521 -0.1035
22540SOL    HW169061   0.650   5.932   4.805 -4.3885 -1.1618  0.5852
22540SOL    HW269062   0.662   5.830   4.917 -0.3585 -1.9752 -0.4212
22541SOL     OW69063   0.762   3.062  11.212 -0.3897 -0.0885  0.8084
22541SOL    HW169064   0.702   2.988  11.203 -1.5859  0.4682  3.1773
22541SOL    HW269065   0.751   3.112  11.132  0.9925 -2.7448 -1.1989
22542SOL     OW69066   7.587   7.316  11.253 -0.3089 -0.1473 -0.7959
22542SOL    HW169067   7.512   7.376  11.250  0.2991  0.6938  0.3265
22542SOL    HW269068   7.661   7.369  11.223 -0.0945 -0.9126 -1.6817
22543SOL     OW69069   1.668   3.506   7.029 -0.5243 -0.1916  0.6013
22543SOL    HW169070   1.612   3.501   6.951 -0.2846  0.8080  0.3569
22543SOL    HW269071   1.616   3.554   7.093 -0.9621 -1.5299  1.2958
22544SOL     OW69072   7.036   6.022   2.279 -0.0732 -0.0182 -0.8264
22544SOL    HW169073   7.111   6.079   2.265 -0.6654  0.7509 -0.8885
22544SOL    HW269074   7.059   5.970   2.356  0.7406 -0.1736 -1.1618
22545SOL     OW69075   5.799   2.312   6.835 -0.1637  0.7175 -0.0992
22545SOL    HW169076   5.729   2.322   6.769  0.0058  1.3704 -0.1913
22545SOL    HW269077   5.858   2.386   6.818  0.5261  0.1961  0.0103
22546SOL     OW69078   1.465   5.903   1.063 -0.1724 -0.0414  0.0189
22546SOL    HW169079   1.489   5.810   1.063  0.0838  0.0001  1.5078
22546SOL    HW269080   1.537   5.946   1.109 -0.3391  0.8966 -0.5682
22547SOL     OW69081   2.589   6.556  11.478  0.3626  0.2608 -0.1438
22547SOL    HW169082   2.659   6.503  11.516 -0.0938  0.3983  0.9210
22547SOL    HW269083   2.619   6.646  11.491  0.2683  0.3027 -0.2184
22548SOL     OW69084   3.039   7.064   8.707 -0.1144 -0.3886 -0.4183
22548SOL    HW169085   3.013   6.972   8.700 -0.8343 -0.3549  1.3888
22548SOL    HW269086   2.982   7.110   8.645 -1.2024 -0.9204  0.1510
22549SOL     OW69087   7.045   2.939   0.146 -0.2252 -0.0304 -0.0424
22549SOL    HW169088   7.095   2.910   0.069  0.6652  1.5937 -0.1325
22549SOL    HW269089   7.107   2.931   0.219 -0.7783 -0.7061  0.3654
22550SOL     OW69090   2.557   4.225   6.169 -0.0406 -0.4536 -0.9103
22550SOL    HW169091   2.462   4.225   6.167 -0.0840  1.8683 -2.0902
22550SOL    HW269092   2.580   4.278   6.246  0.3196 -1.5492 -0.2488
22551SOL     OW69093   3.227   1.405   3.325 -0.0016  0.0851  0.1843
22551SOL    HW169094   3.233   1.495   3.292  2.1229 -0.4324 -1.0441
22551SOL    HW269095   3.197   1.415   3.415  0.1633  2.0321  0.0805
22552SOL     OW69096   3.653   2.074   4.022 -0.1687 -0.0554  0.4596
22552SOL    HW169097   3.609   2.014   3.961  0.7651 -0.7243  0.4236
22552SOL    HW269098   3.726   2.023   4.057 -1.2100 -0.0374  2.8541
22553SOL     OW69099   0.806   0.182   3.399 -0.0756  0.1093  0.1172
22553SOL    HW169100   0.883   0.136   3.434 -0.5471 -1.3293 -0.6619
22553SOL    HW269101   0.735   0.158   3.458 -0.1417  0.5707  0.2234
22554SOL     OW69102   7.864   1.056   2.247  0.1000  0.2937 -0.3372
22554SOL    HW169103   7.801   1.116   2.287  0.1858  0.4637 -0.4533
22554SOL    HW269104   7.890   1.100   2.166  1.0236  0.6396  0.1264
22555SOL     OW69105   3.184   0.591   0.702 -1.1220 -0.6994 -0.0096
22555SOL    HW169106   3.174   0.680   0.670 -1.2463 -1.1521 -1.3043
22555SOL    HW269107   3.206   0.540   0.624 -1.5870 -1.8866  0.6100
22556SOL     OW69108   5.766   1.337   1.523 -0.0057 -0.5696  0.3748
22556SOL    HW169109   5.733   1.259   1.478 -1.6880  1.5652 -2.4526
22556SOL    HW269110   5.693   1.399   1.519  1.4527  1.3665  1.9816
22557SOL     OW69111   4.012   4.444   6.552  0.1178  0.0199 -0.1583
22557SOL    HW169112   4.072   4.370   6.550 -0.7323 -0.7003  0.3565
22557SOL    HW269113   4.005   4.466   6.645 -0.5831 -0.0509 -0.1917
22558SOL     OW69114   7.339   1.726   6.838 -0.3524  0.0387  0.0990
22558SOL    HW169115   7.247   1.722   6.864 -0.0716 -2.5759  0.9120
22558SOL    HW269116   7.359   1.638   6.805  1.9565  0.4302  0.3048
22559SOL     OW69117   5.739   6.114   7.742 -0.4692  0.6882  0.6720
22559SOL    HW169118   5.816   6.081   7.695 -2.5240 -1.3031 -1.5740
22559SOL    HW269119   5.723   6.200   7.705  0.6484  1.1505  1.2043
22560SOL     OW69120   7.913   7.925   4.256 -0.3679  0.3985  0.7034
22560SOL    HW169121   7.871   8.011   4.253 -1.3738 -0.1071 -0.3075
22560SOL    HW269122   7.841   7.863   4.246  0.3264 -0.5846  1.5640
22561SOL     OW69123   2.523   3.114   6.111  0.1012 -0.0369  0.2255
22561SOL    HW169124   2.453   3.088   6.172 -1.8606  0.6866 -1.6091
22561SOL    HW269125   2.570   3.032   6.094 -2.2296 -1.2589 -0.8303
22562SOL     OW69126   6.469   0.046  10.678  0.1935  0.0354 -0.0458
22562SOL    HW169127   6.461  -0.040  10.636  0.5308  0.9550 -2.1567
22562SOL    HW269128   6.436   0.107  10.612  1.4024  1.6655  0.8008
22563SOL     OW69129   4.011   6.797  11.987 -0.0224  0.3522 -0.3405
22563SOL    HW169130   3.957   6.719  11.998 -1.1626  1.2310  0.4805
22563SOL    HW269131   3.963   6.851  11.925  0.0254  1.0131  0.1801
22564SOL     OW69132   6.930   0.518   3.460  0.1302  0.1310 -0.2307
22564SOL    HW169133   6.867   0.457   3.498  0.6443 -0.7554 -0.7791
22564SOL    HW269134   6.889   0.604   3.471 -0.5502 -0.2855  0.6648
22565SOL     OW69135   3.154   2.848  11.009 -0.8030  0.0041  0.4494
22565SOL    HW169136   3.219   2.805  10.954 -0.3739 -0.0046  0.9657
22565SOL    HW269137   3.195   2.856  11.095 -0.6624  1.8713  0.2640
22566SOL     OW69138   7.571   0.834   9.428 -0.2556  0.6785  0.3353
22566SOL    HW169139   7.597   0.838   9.520  0.6844 -0.6653  0.1652
22566SOL    HW269140   7.545   0.743   9.415  1.4812  0.3232 -1.1614
22567SOL     OW69141   4.698   5.319   1.520 -0.1100  0.0824 -0.6298
22567SOL    HW169142   4.778   5.279   1.488 -0.7883 -1.5459 -0.3955
22567SOL    HW269143   4.633   5.303   1.451 -0.1931  1.6473 -0.9601
22568SOL     OW69144   6.142   7.451  10.094 -0.3833 -0.0549 -1.0225
22568SOL    HW169145   6.111   7.536  10.126 -0.5527 -0.1994 -0.8031
22568SOL    HW269146   6.210   7.425  10.156 -0.9360 -0.4861 -0.5823
22569SOL     OW69147   3.421   5.471   8.141  0.0858 -0.2210 -0.4962
22569SOL    HW169148   3.424   5.565   8.160 -1.3031 -0.1785 -0.3752
22569SOL    HW269149   3.328   5.449   8.142  0.3880 -1.6177 -0.4792
22570SOL     OW69150   1.436   1.717   1.233  0.5239  0.5704 -0.4415
22570SOL    HW169151   1.475   1.646   1.285  1.5268  1.1917 -0.3164
22570SOL    HW269152   1.483   1.795   1.261 -1.6653  1.6045  0.6264
22571SOL     OW69153   0.155   4.130   3.086  0.2370  0.0583  0.1167
22571SOL    HW169154   0.081   4.183   3.115  0.7601  2.1466 -2.0222
22571SOL    HW269155   0.207   4.189   3.032  3.3682 -1.3980  1.2895
22572SOL     OW69156   7.500   5.329   1.706  0.6714 -0.0929 -0.5988
22572SOL    HW169157   7.440   5.360   1.773  0.4422 -0.1866 -0.7594
22572SOL    HW269158   7.494   5.234   1.709  1.9564 -0.1691  0.4222
22573SOL     OW69159   3.158   7.842  11.144  0.0371 -0.2569  0.3974
22573SOL    HW169160   3.102   7.919  11.134 -0.9806 -1.0267 -0.0377
22573SOL    HW269161   3.100   7.767  11.130  0.8887 -1.1374  1.3052
22574SOL     OW69162   2.462   5.659   7.000 -0.0381  0.0107  0.2306
22574SOL    HW169163   2.391   5.682   6.941  1.5124  0.3932 -1.5754
22574SOL    HW269164   2.492   5.743   7.035 -0.4343 -0.1471  0.9716
22575SOL     OW69165   3.468   1.343   3.431  0.3456 -0.1163  0.2107
22575SOL    HW169166   3.470   1.248   3.437 -0.1368 -0.1313  0.1844
22575SOL    HW269167   3.384   1.363   3.390  0.1090  0.3550  0.9085
22576SOL     OW69168   2.266   0.993   2.895 -0.1174  0.0930 -0.8679
22576SOL    HW169169   2.298   0.963   2.981  0.6598  2.9241 -0.0616
22576SOL    HW269170   2.186   0.943   2.881  0.2548 -1.1630  1.0433
22577SOL     OW69171   0.063   3.656  11.713  0.0420  0.1955  0.5188
22577SOL    HW169172   0.031   3.576  11.670  2.2730 -0.8791  0.7391
22577SOL    HW269173   0.112   3.702  11.645 -0.0965  0.7178  0.7654
22578SOL     OW69174   4.987   2.344  12.036  0.5529 -0.4247 -0.1586
22578SOL    HW169175   5.053   2.409  12.014  0.3334 -0.2639 -0.3423
22578SOL    HW269176   4.935   2.335  11.957 -0.3147  0.2477  0.3168
22579SOL     OW69177   0.471   2.271   2.756 -0.4407 -0.1847  0.3490
22579SOL    HW169178   0.566   2.277   2.762 -0.4732  2.4150 -0.3784
22579SOL    HW269179   0.452   2.284   2.663 -1.4834 -2.4858  0.1647
22580SOL     OW69180   7.543   7.621  10.362  0.0353  0.0422 -0.1438
22580SOL    HW169181   7.576   7.679  10.294  1.9195  0.8190  1.3101
22580SOL    HW269182   7.597   7.542  10.354  1.1722  0.6361  1.1725
22581SOL     OW69183   7.357   2.847   9.291 -0.5392 -0.1724 -0.0945
22581SOL    HW169184   7.398   2.919   9.244  1.4176 -1.1044  0.1065
22581SOL    HW269185   7.331   2.886   9.375 -0.8698  0.6358 -0.5575
22582SOL     OW69186   0.772   4.748   3.912  0.6848  0.7179 -0.6064
22582SOL    HW169187   0.865   4.769   3.916  1.0231  0.1882 -3.3260
22582SOL    HW269188   0.735   4.817   3.856 -0.2831  0.1567 -0.6741
22583SOL     OW69189   7.826   5.298   7.138 -0.7451 -0.4145 -0.4553
22583SOL    HW169190   7.917   5.302   7.168 -1.0633 -2.2478  0.9331
22583SOL    HW269191   7.831   5.276   7.045  0.2175 -0.7926 -0.3179
22584SOL     OW69192   7.914   2.257  10.276 -0.1014 -0.1493  0.2149
22584SOL    HW169193   8.010   2.252  10.277 -0.0554  0.6599  0.8068
22584SOL    HW269194   7.888   2.230  10.364 -0.3264  0.9918  0.5115
22585SOL     OW69195   0.324   1.697   5.915 -0.1545 -0.2308  0.3929
22585SOL    HW169196   0.289   1.608   5.924 -0.2110 -0.2362  0.1335
22585SOL    HW269197   0.304   1.739   5.998 -0.6520 -0.2816  0.3073
22586SOL     OW69198   5.766   0.531   5.536  0.0070  0.3024 -0.2258
22586SOL    HW169199   5.730   0.555   5.450 -0.3966 -0.9206 -0.4147
22586SOL    HW269200   5.693   0.492   5.583  1.0543 -2.3525 -0.6580
22587SOL     OW69201   1.600   6.964   6.811  0.1361 -0.2249  0.3047
22587SOL    HW169202   1.546   7.043   6.808  1.3002  0.5808 -0.5967
22587SOL    HW269203   1.551   6.903   6.866 -0.3985  1.4339  1.7679
22588SOL     OW69204   2.468   7.691   4.869  0.2170 -0.2711 -0.3154
22588SOL    HW169205   2.488   7.705   4.777 -1.1113 -0.4599 -0.6598
22588SOL    HW269206   2.374   7.708   4.876  0.1280 -1.0714  0.8332
22589SOL     OW69207   6.520   4.919   6.577 -0.3274 -0.3790 -0.4634
22589SOL    HW169208   6.427   4.939   6.584 -0.2846 -0.1676 -0.4984
22589SOL    HW269209   6.554   4.934   6.666 -0.3375 -0.5169 -0.4351
22590SOL     OW69210   5.941   1.569   8.410  0.5303  0.0508 -0.0657
22590SOL    HW169211   5.917   1.523   8.490 -1.5579  0.9651 -0.0918
22590SOL    HW269212   5.921   1.508   8.339  1.2621 -0.3240  0.0444
22591SOL     OW69213   5.906   4.341  11.981  0.1887  0.6021  0.0705
22591SOL    HW169214   5.870   4.392  11.908  1.5594 -0.0750 -1.1228
22591SOL    HW269215   5.856   4.371  12.058 -1.2009  1.4260 -1.0994
22592SOL     OW69216   2.808   0.090   0.856  0.2032  0.1884  0.8072
22592SOL    HW169217   2.868   0.109   0.785 -1.1919  3.2981  0.3001
22592SOL    HW269218   2.834   0.149   0.926 -0.8675 -0.0225  1.4039
22593SOL     OW69219   6.017   7.267   2.686 -0.2755  0.3198  0.1994
22593SOL    HW169220   6.022   7.337   2.621  0.4435 -0.1556 -0.2794
22593SOL    HW269221   5.926   7.238   2.682 -0.1329 -0.0592 -1.0225
22594SOL     OW69222   5.534   4.675   5.699  0.7069 -0.1011 -0.2132
22594SOL    HW169223   5.445   4.689   5.729 -0.4332  0.4751 -3.4257
22594SOL    HW269224   5.582   4.645   5.776 -2.0515  0.3257  1.7915
22595SOL     OW69225   5.989   6.687   9.738 -0.3460 -0.2919  0.1817
22595SOL    HW169226   6.038   6.767   9.721 -0.1187 -0.2996  0.7797
22595SOL    HW269227   5.906   6.718   9.775 -0.0956 -0.3396  0.8000
22596SOL     OW69228   7.851   1.714   5.537  0.0615 -1.1230  0.6257
22596SOL    HW169229   7.806   1.778   5.592  0.4227 -0.4464  0.1458
22596SOL    HW269230   7.811   1.630   5.561 -1.1133 -0.6041  0.5583
22597SOL     OW69231   0.073   4.392  10.571  0.0929 -0.1767 -0.4440
22597SOL    HW169232   0.152   4.369  10.619  0.0266 -0.4814 -0.4803
22597SOL    HW269233   0.003   4.343  10.615 -0.2165  0.7554  0.1399
22598SOL     OW69234   5.038   3.296  11.133 -0.2565 -0.0263 -0.1488
22598SOL    HW169235   5.036   3.364  11.201 -1.7568  1.2459 -1.3844
22598SOL    HW269236   5.001   3.219  11.176 -1.1784  0.7547  0.5194
22599SOL     OW69237   7.651   1.819  10.441  0.0729  0.0277 -0.4319
22599SOL    HW169238   7.644   1.749  10.506 -0.6128  1.8278  1.5178
22599SOL    HW269239   7.561   1.844  10.422  0.3353  1.7535  0.4705
22600SOL     OW69240   1.515   2.224   4.442 -0.6455 -0.2280  0.2553
22600SOL    HW169241   1.590   2.166   4.427 -0.5108 -0.2318  0.9180
22600SOL    HW269242   1.469   2.186   4.517 -2.2040 -1.0890 -1.0812
22601SOL     OW69243   5.515   0.974   7.594 -0.0299  0.8711 -0.0793
22601SOL    HW169244   5.548   0.901   7.542 -2.7142 -0.0739 -0.5853
22601SOL    HW269245   5.462   0.933   7.663 -2.2309  2.3086 -0.8356
22602SOL     OW69246   0.205   3.756   5.935 -0.5908  0.2567  0.3036
22602SOL    HW169247   0.128   3.709   5.965 -1.9832 -0.1418 -3.3302
22602SOL    HW269248   0.273   3.688   5.928 -1.4010 -0.4811 -1.0091
22603SOL     OW69249   1.755   0.584   8.537 -0.5102  0.6002  0.3340
22603SOL    HW169250   1.733   0.589   8.444 -1.1610 -1.3910  0.3367
22603SOL    HW269251   1.763   0.491   8.555 -0.4915  0.9358  2.3059
22604SOL     OW69252   3.234   2.444   2.466  0.1235  0.4796  0.2910
22604SOL    HW169253   3.312   2.458   2.412  0.8641 -0.0930  1.1794
22604SOL    HW269254   3.244   2.356   2.501 -0.3512  0.8195  1.3391
22605SOL     OW69255   6.765   0.384   4.529 -0.2800  0.8132 -0.3414
22605SOL    HW169256   6.739   0.360   4.618 -0.8934  1.6658 -0.2750
22605SOL    HW269257   6.841   0.442   4.541 -0.5356  1.1504 -0.3637
22606SOL     OW69258   1.840   6.201   0.191 -0.0674  0.3128  0.0678
22606SOL    HW169259   1.776   6.235   0.128 -2.3331 -1.6862  1.1663
22606SOL    HW269260   1.795   6.204   0.275  1.1496 -1.4525  0.8407
22607SOL     OW69261   3.124   4.058   4.591  0.1312 -0.2640 -0.2357
22607SOL    HW169262   3.144   4.120   4.521 -1.3865  2.4044  1.5384
22607SOL    HW269263   3.032   4.034   4.577 -0.0596 -0.0433  0.5832
22608SOL     OW69264   7.654   6.434   3.701  0.3517  0.0960  0.4826
22608SOL    HW169265   7.683   6.482   3.623  0.1702 -0.5727 -0.0063
22608SOL    HW269266   7.677   6.492   3.774  2.0864 -0.0035  0.0620
22609SOL     OW69267   0.566   7.405   6.236  0.0408 -0.0972 -0.2514
22609SOL    HW169268   0.656   7.394   6.206  0.3717  0.0868  0.6329
22609SOL    HW269269   0.575   7.452   6.319 -0.7226 -2.1436  1.0538
22610SOL     OW69270   4.713   0.726  10.835 -0.4704  0.4949  0.4792
22610SOL    HW169271   4.755   0.789  10.894  0.7482  0.2290 -0.0691
22610SOL    HW269272   4.723   0.765  10.748 -2.6698  1.1101  0.4534
22611SOL     OW69273   0.693   2.496   1.347 -0.3547  0.1676 -0.3843
22611SOL    HW169274   0.655   2.572   1.390 -0.7038  1.7756 -3.3200
22611SOL    HW269275   0.678   2.424   1.409 -0.8870  2.2248  2.0631
22612SOL     OW69276   3.468   4.368   0.924  0.0181  0.0422  0.3535
22612SOL    HW169277   3.457   4.418   0.844 -0.2525 -0.0315  0.3431
22612SOL    HW269278   3.430   4.423   0.993  0.9546  0.4493  0.5572
22613SOL     OW69279   3.050   5.935   8.132  0.0014 -0.1568 -0.2390
22613SOL    HW169280   3.059   5.889   8.215 -0.6596  0.8222  0.3965
22613SOL    HW269281   2.983   5.887   8.085 -3.5241  2.1829  1.9621
22614SOL     OW69282   0.076   7.296   5.328  0.0610 -0.3023 -0.3930
22614SOL    HW169283   0.021   7.218   5.323  0.3770 -0.5078 -0.7106
22614SOL    HW269284   0.148   7.272   5.387  1.2327 -0.9373 -2.0136
22615SOL     OW69285   2.974   1.813   2.299 -0.2721  0.0889  0.3278
22615SOL    HW169286   3.018   1.759   2.234  1.4504  2.8159 -0.9814
22615SOL    HW269287   2.884   1.822   2.268  0.4708  1.1948 -1.6970
22616SOL     OW69288   2.540   2.061   1.640  0.7387 -0.5920 -0.1693
22616SOL    HW169289   2.544   2.149   1.676  1.0134 -0.9316  0.6413
22616SOL    HW269290   2.608   2.012   1.687  0.8823 -1.1277 -0.9153
22617SOL     OW69291   4.564   1.056   7.633  0.1733 -0.2922 -0.0535
22617SOL    HW169292   4.592   1.004   7.708 -1.8717 -2.6684 -0.7832
22617SOL    HW269293   4.469   1.057   7.639  0.0700  3.5060 -0.1265
22618SOL     OW69294   0.367   3.367   7.156  0.0083  0.4505  0.3173
22618SOL    HW169295   0.332   3.412   7.233 -0.4975 -0.6115  0.7366
22618SOL    HW269296   0.399   3.283   7.190  2.4170  1.1073 -0.1628
22619SOL     OW69297   7.314   0.026   5.521  0.4935  0.1262 -0.3156
22619SOL    HW169298   7.308   0.044   5.427 -0.7849  1.4860 -0.0056
22619SOL    HW269299   7.372   0.094   5.554  0.2091  0.2076  0.0167
22620SOL     OW69300   5.389   6.710   9.704  0.4390 -0.1130 -0.6554
22620SOL    HW169301   5.425   6.782   9.652 -1.2092  1.1998 -0.0669
22620SOL    HW269302   5.431   6.719   9.789 -2.1146  2.3357  0.5155
22621SOL     OW69303   0.990   6.013   2.753  0.1364  0.2742  0.1181
22621SOL    HW169304   1.058   6.044   2.813  1.2709 -1.3595 -0.2649
22621SOL    HW269305   0.987   5.918   2.767 -1.5760  0.2170 -0.3959
22622SOL     OW69306   5.252   0.857   3.415 -0.3469  0.4964 -0.5369
22622SOL    HW169307   5.211   0.897   3.492 -2.0682 -1.6115 -0.2932
22622SOL    HW269308   5.330   0.814   3.450  2.1767  4.2103 -0.9515
22623SOL     OW69309   0.467   6.357   3.052  0.5234 -0.0122 -0.7430
22623SOL    HW169310   0.504   6.269   3.044 -1.9606 -1.3906  1.5170
22623SOL    HW269311   0.540   6.410   3.085  1.5513 -1.6711 -0.2073
22624SOL     OW69312   4.840   7.019   2.565 -0.2046 -0.2922 -0.9046
22624SOL    HW169313   4.813   7.001   2.475  2.7790 -0.1392 -1.9540
22624SOL    HW269314   4.894   7.098   2.558  2.9945 -2.1881  0.3368
22625SOL     OW69315   5.707   3.988   8.534 -0.1687  0.4363 -0.4699
22625SOL    HW169316   5.705   3.892   8.533 -0.2380  0.4384 -0.9091
22625SOL    HW269317   5.791   4.009   8.574 -0.8692  0.2159  1.1949
22626SOL     OW69318   3.301   5.542   3.036  0.0972 -0.2538 -0.0481
22626SOL    HW169319   3.343   5.602   3.098 -0.8882  0.6565 -0.2243
22626SOL    HW269320   3.268   5.599   2.966 -1.7941 -0.8594  0.2993
22627SOL     OW69321   5.868   1.359   5.027 -0.0016 -0.2016  0.3559
22627SOL    HW169322   5.934   1.411   4.981 -0.4037 -0.7143 -0.8443
22627SOL    HW269323   5.785   1.393   4.995 -0.3319  0.0397  1.4110
22628SOL     OW69324   0.746   6.467   3.418  0.2608 -0.2140  0.1006
22628SOL    HW169325   0.801   6.458   3.496 -0.8348  2.3333  1.2971
22628SOL    HW269326   0.660   6.434   3.445  0.5096 -1.8049 -0.9397
22629SOL     OW69327   6.986   3.494   7.241 -0.0933 -0.1239 -0.3310
22629SOL    HW169328   6.969   3.525   7.330  0.7816 -1.0959  0.2026
22629SOL    HW269329   6.987   3.573   7.187  0.0117  0.5395  0.6336
22630SOL     OW69330   4.772   1.475   7.825 -0.2926 -0.1597 -0.5505
22630SOL    HW169331   4.826   1.545   7.860  0.9089 -1.1144 -0.4470
22630SOL    HW269332   4.818   1.394   7.847 -0.4033 -0.8907 -2.7375
22631SOL     OW69333   4.497   1.271   3.809 -0.5660  0.3712 -0.2207
22631SOL    HW169334   4.469   1.280   3.718  0.4881  0.6587 -0.5284
22631SOL    HW269335   4.513   1.360   3.838 -3.4331  0.5516  1.1226
22632SOL     OW69336   6.394   1.277   6.806 -0.1042  0.1077 -0.0741
22632SOL    HW169337   6.393   1.373   6.802  0.6759  0.0885 -1.2052
22632SOL    HW269338   6.476   1.256   6.851 -0.5505 -0.0317  0.6945
22633SOL     OW69339   0.173   4.434  10.316  0.0265 -0.4830  0.0706
22633SOL    HW169340   0.232   4.502  10.350 -0.5826  0.0957 -0.0016
22633SOL    HW269341   0.132   4.398  10.394 -1.3365  0.8125 -0.0048
22634SOL     OW69342   5.946   6.818  11.917  0.5956 -0.5207  0.2684
22634SOL    HW169343   5.943   6.904  11.959  0.3634  0.9612 -2.5567
22634SOL    HW269344   5.879   6.822  11.849 -0.9589 -3.7978  1.4404
22635SOL     OW69345   0.051   6.504  10.129  0.1739 -0.1601 -0.1528
22635SOL    HW169346   0.010   6.427  10.169  0.0085 -1.2653 -2.3305
22635SOL    HW269347  -0.017   6.541  10.072  1.4867 -0.8799 -2.3059
22636SOL     OW69348   7.747   6.290   4.160 -0.2044  0.3722 -0.0597
22636SOL    HW169349   7.825   6.294   4.104 -0.5511 -0.1419 -0.5917
22636SOL    HW269350   7.777   6.321   4.246  0.5403  0.3485 -0.3057
22637SOL     OW69351   2.144   7.606   1.222  0.6186  0.3318 -0.2685
22637SOL    HW169352   2.231   7.641   1.203  1.2927 -1.0085  0.2250
22637SOL    HW269353   2.159   7.536   1.286 -0.4535 -1.8537 -2.2103
22638SOL     OW69354   2.525   4.120   1.548  0.3774 -0.0160 -0.9569
22638SOL    HW169355   2.599   4.082   1.596  0.7372  0.5630 -1.0455
22638SOL    HW269356   2.563   4.195   1.501  0.0608 -0.6223 -2.2243
22639SOL     OW69357   5.643   5.894   1.853 -0.3607  0.0045 -0.0378
22639SOL    HW169358   5.551   5.905   1.829  0.0456  2.0197 -0.8889
22639SOL    HW269359   5.682   5.847   1.779 -0.0319  2.2815 -1.3990
22640SOL     OW69360   5.857   7.740  10.520  0.6730  0.2595  0.2861
22640SOL    HW169361   5.842   7.805  10.451 -0.0426  1.1343  1.2297
22640SOL    HW269362   5.879   7.793  10.597  1.9421 -0.7175  0.6318
22641SOL     OW69363   3.438   2.181   8.125  0.1310 -0.3339 -0.5817
22641SOL    HW169364   3.467   2.094   8.099  0.8566  0.2174 -1.6414
22641SOL    HW269365   3.345   2.183   8.101 -0.1432 -1.1195  0.3064
22642SOL     OW69366   2.336   0.622   4.324 -0.3553  0.8323  0.4023
22642SOL    HW169367   2.268   0.641   4.389 -0.0997  0.8276  0.6741
22642SOL    HW269368   2.407   0.584   4.375 -1.1285 -1.6139 -0.1858
22643SOL     OW69369   0.148   4.579   5.073  1.0824  0.0166 -0.2278
22643SOL    HW169370   0.122   4.646   5.135  0.9527  0.7486 -1.0563
22643SOL    HW269371   0.128   4.616   4.987 -0.2909 -1.6322 -0.6662
22644SOL     OW69372   5.626   7.477   3.626  0.4572 -0.5788  0.7183
22644SOL    HW169373   5.644   7.384   3.612 -0.8755 -1.1063  2.1211
22644SOL    HW269374   5.706   7.511   3.664  0.7209 -1.3445  0.8722
22645SOL     OW69375   7.387   4.983   8.025  0.1109 -0.4088  0.0885
22645SOL    HW169376   7.390   4.967   8.120  1.3301 -0.1385  0.1114
22645SOL    HW269377   7.470   4.949   7.992  0.1659  0.4685 -0.7214
22646SOL     OW69378   3.743   2.249   7.343 -0.2228 -0.4357  0.2643
22646SOL    HW169379   3.766   2.172   7.395  1.7009 -0.2428 -0.2194
22646SOL    HW269380   3.736   2.320   7.407  1.9574 -0.2370  0.3708
22647SOL     OW69381   0.652   0.365   4.336 -0.3336 -0.3531 -0.1598
22647SOL    HW169382   0.663   0.455   4.305  0.0695 -0.3464  0.0012
22647SOL    HW269383   0.731   0.347   4.387 -1.3338 -0.0713  1.5833
22648SOL     OW69384   7.756   4.584   6.103 -0.4658 -0.2302  0.0989
22648SOL    HW169385   7.770   4.677   6.084  0.3901 -0.2420  0.6086
22648SOL    HW269386   7.839   4.542   6.080 -1.2037 -1.0509 -1.1645
22649SOL     OW69387   3.518   4.849  10.034  0.8997 -0.4579 -0.4772
22649SOL    HW169388   3.479   4.845   9.947  0.7163 -0.1491 -0.4126
22649SOL    HW269389   3.531   4.757  10.059  1.8269 -0.5331 -1.2119
22650SOL     OW69390   7.374   0.101   4.036 -0.4792 -0.1178  0.2844
22650SOL    HW169391   7.295   0.095   3.983 -1.6361  1.0045  1.8069
22650SOL    HW269392   7.428   0.166   3.992 -0.4930 -0.6931 -0.6151
22651SOL     OW69393   1.157   4.115   7.282  0.4942  0.0730 -0.3619
22651SOL    HW169394   1.187   4.202   7.257 -0.8650  0.9674  0.9112
22651SOL    HW269395   1.100   4.087   7.210 -0.8285  1.2338  0.1847
22652SOL     OW69396   7.097   7.908   5.909 -0.4373  0.0512 -0.2030
22652SOL    HW169397   7.128   7.856   5.835 -0.6949  1.3047 -1.2343
22652SOL    HW269398   7.153   7.986   5.909 -0.6598  0.2231  0.7183
22653SOL     OW69399   2.174   4.205   6.576 -0.1331  0.5302 -0.4707
22653SOL    HW169400   2.181   4.115   6.609  0.0475  0.7109 -0.0138
22653SOL    HW269401   2.081   4.214   6.554 -0.1782  0.2739 -0.3969
22654SOL     OW69402   5.228   2.602  10.723  0.1631  0.3231 -0.5719
22654SOL    HW169403   5.238   2.681  10.670  0.1485  0.6751 -0.0570
22654SOL    HW269404   5.294   2.609  10.791 -1.5783  1.2593  1.1255
22655SOL     OW69405   7.382   6.817   1.239  0.1968  0.4152 -0.5290
22655SOL    HW169406   7.336   6.734   1.230  0.1011  0.4356 -0.2255
22655SOL    HW269407   7.427   6.812   1.323 -0.9594  1.2166  0.1775
22656SOL     OW69408   4.689   5.426   5.971  0.1661  0.0324 -0.1085
22656SOL    HW169409   4.643   5.466   5.897 -0.9054  0.0638  0.5422
22656SOL    HW269410   4.734   5.351   5.934 -0.4490 -0.0145 -0.7822
22657SOL     OW69411   6.915   3.399   5.715  0.0948 -0.1835 -0.2413
22657SOL    HW169412   6.836   3.441   5.681 -0.6372 -1.1716  0.1572
22657SOL    HW269413   6.966   3.470   5.755 -1.3501  0.2681  0.8979
22658SOL     OW69414   5.519   2.309   5.002 -0.3512  0.5924  0.3993
22658SOL    HW169415   5.516   2.277   5.092 -1.3112  0.4539  0.3267
22658SOL    HW269416   5.432   2.291   4.967  0.2337 -0.0053 -0.7870
22659SOL     OW69417   2.454   2.881   5.293 -0.1328 -0.2326 -0.3546
22659SOL    HW169418   2.542   2.916   5.301 -1.4406  2.9946  1.7253
22659SOL    HW269419   2.435   2.843   5.380 -0.6214 -1.4719 -0.9730
22660SOL     OW69420   4.253   6.448   3.947  0.9565  0.2678  0.2619
22660SOL    HW169421   4.246   6.494   4.030 -1.2986  0.0373  0.2850
22660SOL    HW269422   4.294   6.511   3.888  0.5000  1.2771  0.9879
22661SOL     OW69423   7.464   2.599   7.591  0.4810 -0.5212 -0.2292
22661SOL    HW169424   7.540   2.654   7.575  0.8379 -1.1580 -0.7949
22661SOL    HW269425   7.497   2.509   7.579 -0.4586 -0.7855 -0.9722
22662SOL     OW69426   3.467   2.391   9.862  0.4952  0.3044 -0.2675
22662SOL    HW169427   3.385   2.355   9.829  0.1947  0.3488  0.4042
22662SOL    HW269428   3.522   2.400   9.785  0.3830 -1.0656 -0.5299
22663SOL     OW69429   4.128   5.660   3.292 -0.2113  0.1151  0.1026
22663SOL    HW169430   4.163   5.700   3.371 -0.9748 -0.9969  1.0258
22663SOL    HW269431   4.034   5.674   3.297 -0.4310 -1.2859  0.1614
22664SOL     OW69432   2.046   6.034  11.002  0.2352 -0.0473 -0.1310
22664SOL    HW169433   2.032   5.959  11.060 -0.2679  0.9720  1.0949
22664SOL    HW269434   1.997   6.105  11.042 -1.3311  0.3684 -2.5766
22665SOL     OW69435   3.608   0.010   1.111 -0.0163  0.2079  0.3290
22665SOL    HW169436   3.611  -0.078   1.075  2.6368  0.0762  0.6208
22665SOL    HW269437   3.550   0.004   1.186 -0.6714 -1.0194 -0.2450
22666SOL     OW69438   7.255   1.869   8.110 -0.0408  0.2521 -0.2047
22666SOL    HW169439   7.253   1.837   8.200 -2.2284 -1.0325 -0.6521
22666SOL    HW269440   7.250   1.965   8.119 -0.1879  0.1479  1.0346
22667SOL     OW69441   4.867   6.760   3.164  0.2724  0.2052  0.0992
22667SOL    HW169442   4.875   6.742   3.258  0.9005 -1.9652 -0.3130
22667SOL    HW269443   4.840   6.676   3.126  2.4228  0.3395 -1.9241
22668SOL     OW69444   4.014   0.765  10.866 -0.8465 -0.2934 -0.2540
22668SOL    HW169445   3.929   0.805  10.879 -2.2347 -3.5750  2.2518
22668SOL    HW269446   3.996   0.688  10.812  0.3491 -1.4380  0.8933
22669SOL     OW69447   0.326   3.705   7.170  0.7373 -0.0901  0.3220
22669SOL    HW169448   0.355   3.644   7.238  0.1872 -1.0267 -0.2592
22669SOL    HW269449   0.264   3.654   7.118  2.9778 -0.2588 -2.4153
22670SOL     OW69450   3.994   6.156  10.773  0.3516  0.4137  0.2074
22670SOL    HW169451   3.899   6.166  10.782  0.2891  0.2344 -0.2250
22670SOL    HW269452   4.009   6.061  10.770  0.5850  0.4329  0.6708
22671SOL     OW69453   4.974   6.041   2.730 -0.4351 -0.7379  0.1404
22671SOL    HW169454   5.025   5.964   2.702  0.4013  0.0478 -0.5816
22671SOL    HW269455   4.979   6.100   2.655 -0.5362  0.2781  0.9230
22672SOL     OW69456   0.523   2.543   0.829  0.4981 -0.0440 -0.3302
22672SOL    HW169457   0.608   2.536   0.784 -0.0048  0.2839 -1.3764
22672SOL    HW269458   0.500   2.452   0.849  0.6722 -0.2200 -0.8814
22673SOL     OW69459   7.272   7.336   3.206 -0.1926 -0.0706 -0.1661
22673SOL    HW169460   7.343   7.275   3.225 -0.6209 -0.4706  0.1651
22673SOL    HW269461   7.271   7.342   3.110 -0.2481 -0.7110 -0.2122
22674SOL     OW69462   3.798   0.521   1.344 -0.7915  0.1855  0.0928
22674SOL    HW169463   3.788   0.512   1.439 -0.8235  1.0962  0.1824
22674SOL    HW269464   3.844   0.604   1.332  1.3435 -1.0248 -0.5966
22675SOL     OW69465   4.363   7.285   2.612  0.2421 -0.3852 -0.1618
22675SOL    HW169466   4.270   7.265   2.619 -0.0707  1.1466  0.5713
22675SOL    HW269467   4.371   7.337   2.532  0.3664 -0.0552  0.0603
22676SOL     OW69468   1.492   7.684   5.667 -0.2167  0.2457 -0.2605
22676SOL    HW169469   1.524   7.764   5.625 -1.1639  0.2034 -1.1068
22676SOL    HW269470   1.408   7.710   5.706  0.7860  0.3819  1.9854
22677SOL     OW69471   2.577   0.863   5.566 -0.0177  0.4011  0.1585
22677SOL    HW169472   2.519   0.832   5.496 -1.0234  0.7196  0.8142
22677SOL    HW269473   2.650   0.905   5.521  0.8493 -1.9303 -0.7352
22678SOL     OW69474   4.521   5.315   1.297 -0.5403 -0.2788 -0.1440
22678SOL    HW169475   4.471   5.393   1.272  0.0787 -0.1918 -1.2043
22678SOL    HW269476   4.492   5.248   1.235  1.4243  0.0821 -1.5898
22679SOL     OW69477   0.879   5.304   0.481  0.8100 -0.2481  0.5453
22679SOL    HW169478   0.833   5.301   0.397  1.4522  0.1640  0.1739
22679SOL    HW269479   0.843   5.229   0.530  0.6407 -0.6679 -0.1990
22680SOL     OW69480   7.472   4.323  12.151  0.4647 -0.1652 -0.1537
22680SOL    HW169481   7.522   4.376  12.089  2.5094 -0.6465  0.9971
22680SOL    HW269482   7.525   4.324  12.231 -2.1844  0.6725  1.7482
22681SOL     OW69483   6.412   3.988   0.649 -0.0468 -0.4769  0.1139
22681SOL    HW169484   6.349   3.918   0.665  1.0512 -2.1702 -2.3846
22681SOL    HW269485   6.440   4.016   0.736 -1.1216 -2.5886  1.2059
22682SOL     OW69486   6.716   7.597   0.121 -0.0550  0.1555  0.2215
22682SOL    HW169487   6.743   7.508   0.145  2.9638  0.3871 -1.8352
22682SOL    HW269488   6.782   7.654   0.162  0.1374  1.1379 -1.3733
22683SOL     OW69489   7.142   7.053   5.348  0.5242  0.4700 -0.7812
22683SOL    HW169490   7.233   7.030   5.365  0.2283 -2.2889 -2.2887
22683SOL    HW269491   7.146   7.116   5.277  1.2891 -0.2464 -1.3988
22684SOL     OW69492   5.705   5.608   7.146 -0.0782 -0.4498 -0.3081
22684SOL    HW169493   5.669   5.519   7.141  0.6584 -0.7444 -0.5065
22684SOL    HW269494   5.690   5.633   7.238  0.1871 -0.9871 -0.1092
22685SOL     OW69495   0.654   0.837   9.410  0.0351 -0.2958 -0.0499
22685SOL    HW169496   0.701   0.770   9.459  0.8003  0.7390  0.6697
22685SOL    HW269497   0.682   0.824   9.319  0.3953 -0.7652  0.1222
22686SOL     OW69498   0.876   3.053   3.076  0.0637 -0.0253  0.1928
22686SOL    HW169499   0.838   2.998   3.008 -0.0153  1.4036 -0.9485
22686SOL    HW269500   0.966   3.023   3.084 -0.1017 -0.6110 -0.0976
22687SOL     OW69501   4.872   0.007   5.532  0.0549 -0.1282  0.2459
22687SOL    HW169502   4.923  -0.064   5.572  0.7920  0.5999  0.6333
22687SOL    HW269503   4.856  -0.022   5.442  0.9422 -0.4889  0.1969
22688SOL     OW69504   3.333   2.675  12.418  0.3894  0.8117  0.6705
22688SOL    HW169505   3.293   2.734  12.355 -0.5064 -0.3202  0.1381
22688SOL    HW269506   3.412   2.643  12.375  1.0246  1.8061  1.0703
22689SOL     OW69507   7.962   6.903  10.229 -0.3722 -0.3145  0.7383
22689SOL    HW169508   7.971   6.822  10.278  1.2945 -0.8440 -0.3573
22689SOL    HW269509   8.009   6.968  10.281  0.8550 -0.7402  0.2129
22690SOL     OW69510   6.594   7.500   9.584  0.2825 -0.0831  0.2330
22690SOL    HW169511   6.571   7.592   9.569  0.6070 -0.1110 -0.4836
22690SOL    HW269512   6.689   7.496   9.568  0.0667 -0.7763 -0.9416
22691SOL     OW69513   0.051   3.348   5.469 -0.3090  0.5782  0.2869
22691SOL    HW169514   0.028   3.346   5.562 -1.8431 -0.6061 -0.0708
22691SOL    HW269515   0.146   3.359   5.468 -0.1271 -0.4404  2.0248
22692SOL     OW69516   4.947   2.956   1.289  0.3288 -0.1690 -0.7997
22692SOL    HW169517   4.879   2.992   1.346  2.1881  3.1107 -0.3762
22692SOL    HW269518   5.010   2.915   1.348 -0.3619 -1.5912 -1.0283
22693SOL     OW69519   3.607   2.239  10.055 -0.0077 -0.2543 -0.4327
22693SOL    HW169520   3.563   2.307  10.005 -0.0018 -1.0933 -1.6209
22693SOL    HW269521   3.556   2.160  10.037 -0.4865 -0.4498  1.5458
22694SOL     OW69522   2.463   7.283   0.629  0.0789  0.1706  0.2997
22694SOL    HW169523   2.472   7.349   0.561 -1.8813 -0.8645 -1.0725
22694SOL    HW269524   2.534   7.221   0.612  0.3261  0.5530 -0.0612
22695SOL     OW69525   4.124   7.871   1.860 -0.3141  0.2294 -0.1192
22695SOL    HW169526   4.072   7.950   1.875 -0.3425  0.4580 -1.3695
22695SOL    HW269527   4.206   7.903   1.821 -0.9517 -0.4598 -2.1161
22696SOL     OW69528   4.233   7.061  12.150  0.0354  0.0817  0.2784
22696SOL    HW169529   4.229   7.152  12.121 -0.8852  0.5502  1.7450
22696SOL    HW269530   4.325   7.037  12.143  0.2111  0.9647 -0.6009
22697SOL     OW69531   1.449   6.946   4.166 -0.4577  0.2661  0.8398
22697SOL    HW169532   1.406   7.020   4.123 -0.6881 -0.6923 -0.6634
22697SOL    HW269533   1.542   6.958   4.148 -0.2759  1.1415  2.1864
22698SOL     OW69534   4.765   0.935  11.656 -0.1323  0.1012  0.4133
22698SOL    HW169535   4.830   0.958  11.723  0.6127 -1.9317  0.4606
22698SOL    HW269536   4.773   0.840  11.647 -1.9128  0.0284 -0.8490
22699SOL     OW69537   3.102   4.998   0.848 -0.3542  0.5538  0.3987
22699SOL    HW169538   3.094   5.031   0.759 -1.5911 -1.6697 -0.3904
22699SOL    HW269539   3.013   4.973   0.873  0.0100  0.8670  2.1594
22700SOL     OW69540   7.569   7.090  11.449  0.1121  0.1264  0.0528
22700SOL    HW169541   7.501   7.028  11.420  0.4513 -0.0912 -0.2802
22700SOL    HW269542   7.579   7.151  11.376  0.9184 -0.3822 -0.2687
22701SOL     OW69543   1.362   6.407   4.966 -0.2319  0.3401 -0.0814
22701SOL    HW169544   1.386   6.484   4.914 -1.4001  1.0313  0.3528
22701SOL    HW269545   1.369   6.333   4.906 -0.7676  1.0137 -0.9856
22702SOL     OW69546   2.746   2.275   4.921  0.4965  0.2356  0.0520
22702SOL    HW169547   2.789   2.356   4.893  1.5601  0.0477  1.0759
22702SOL    HW269548   2.816   2.224   4.963  0.0263 -1.5156 -1.1481
22703SOL     OW69549   3.400   0.128  11.970 -0.3927 -0.2600 -0.4364
22703SOL    HW169550   3.427   0.054  12.025  0.6115 -0.2380 -0.8702
22703SOL    HW269551   3.433   0.106  11.883  0.4954  0.9820 -0.4385
22704SOL     OW69552   4.480   5.604   6.110  0.0872 -0.0443 -0.2334
22704SOL    HW169553   4.513   5.542   6.045 -1.0695 -0.0562 -0.8389
22704SOL    HW269554   4.524   5.579   6.192  0.7503 -0.7107 -0.7784
22705SOL     OW69555   2.128   2.391   6.222 -0.2196 -0.3032  0.8124
22705SOL    HW169556   2.185   2.320   6.193 -1.6279 -1.0878 -0.2000
22705SOL    HW269557   2.181   2.443   6.282  1.8568 -0.4039 -0.8394
22706SOL     OW69558   2.901   6.432   4.658 -0.0406  0.8591  0.5020
22706SOL    HW169559   2.927   6.433   4.751  2.2787 -0.3752 -0.0667
22706SOL    HW269560   2.954   6.501   4.618  0.6173 -0.0705 -0.2696
22707SOL     OW69561   5.294   1.730   4.354 -0.5713  0.0267  0.7699
22707SOL    HW169562   5.280   1.669   4.282  0.7836 -1.3534  1.6196
22707SOL    HW269563   5.358   1.793   4.320  0.1969 -0.7201  0.8173
22708SOL     OW69564   1.137   0.458  11.810 -0.7045 -0.2092  0.5906
22708SOL    HW169565   1.226   0.467  11.846 -0.1801 -1.2117 -0.4053
22708SOL    HW269566   1.085   0.521  11.860  0.8782  1.5817  0.1447
22709SOL     OW69567   4.726   7.699   7.450 -0.2752 -0.3426  0.1978
22709SOL    HW169568   4.678   7.648   7.515  1.0894  0.2750  1.7416
22709SOL    HW269569   4.722   7.789   7.481  0.6692 -0.0767 -0.4078
22710SOL     OW69570   4.135   0.682   0.724 -0.0841  0.1834  0.0335
22710SOL    HW169571   4.140   0.752   0.788 -0.2099  0.8709 -0.6907
22710SOL    HW269572   4.057   0.702   0.672  0.4867  0.1303 -0.8722
22711SOL     OW69573   5.731   1.216  10.144  0.3809  0.0758 -0.1947
22711SOL    HW169574   5.678   1.137  10.137 -1.2495  1.1709 -0.7480
22711SOL    HW269575   5.774   1.224  10.059 -0.2649  0.3186 -0.5048
22712SOL     OW69576   3.214   3.084   6.438 -0.4172 -0.2026 -0.0882
22712SOL    HW169577   3.136   3.085   6.382 -1.1209  0.0997  0.8709
22712SOL    HW269578   3.285   3.110   6.380 -1.4564  2.2756 -0.3898
22713SOL     OW69579   3.224   0.796   8.123  0.0719  0.2295  0.0329
22713SOL    HW169580   3.237   0.717   8.071 -0.8639 -0.7657  1.2396
22713SOL    HW269581   3.161   0.770   8.191 -1.9318  2.5883 -0.7767
22714SOL     OW69582   6.250   7.698   5.516  0.9245 -0.1642  0.4125
22714SOL    HW169583   6.340   7.706   5.485  0.6805  0.0404 -0.2512
22714SOL    HW269584   6.222   7.787   5.535  0.4350 -0.0829 -0.6257
22715SOL     OW69585   0.011   1.556   4.646  0.3360 -0.1907 -0.3378
22715SOL    HW169586  -0.005   1.633   4.700  2.1417  0.4516 -0.6527
22715SOL    HW269587   0.104   1.537   4.658 -0.0922 -2.4409 -0.1394
22716SOL     OW69588   0.494   0.602  12.109 -0.5271  0.5154  0.2178
22716SOL    HW169589   0.545   0.683  12.105 -0.3125  0.3654 -0.1468
22716SOL    HW269590   0.460   0.591  12.020 -1.5501  0.8377  0.5613
22717SOL     OW69591   4.466   7.594  10.083 -0.0455 -0.2748 -0.5196
22717SOL    HW169592   4.530   7.663  10.103  0.2286 -0.0125 -2.1458
22717SOL    HW269593   4.388   7.618  10.133  0.0475  1.2350 -1.0455
22718SOL     OW69594   3.155   0.358   4.873 -0.3079  0.1098  0.4717
22718SOL    HW169595   3.158   0.372   4.967  0.5209 -0.0522  0.4744
22718SOL    HW269596   3.237   0.395   4.840  0.7198 -2.2844  0.1577
22719SOL     OW69597   7.530   4.545   1.577 -0.1276  0.3005  0.2631
22719SOL    HW169598   7.505   4.468   1.628 -0.0361 -0.3046 -0.5912
22719SOL    HW269599   7.485   4.535   1.493  1.6980 -0.0328 -0.7452
22720SOL     OW69600   6.840   6.901   6.478 -0.0067 -0.1055 -0.5186
22720SOL    HW169601   6.892   6.900   6.398 -0.3797  1.0708 -0.7961
22720SOL    HW269602   6.779   6.828   6.468 -0.0315  0.0129 -1.2978
22721SOL     OW69603   3.572   3.413   2.691 -0.0652 -0.0955 -0.3916
22721SOL    HW169604   3.581   3.497   2.646 -0.4211 -0.3376 -0.9201
22721SOL    HW269605   3.479   3.408   2.714 -0.2725 -0.8110 -1.3090
22722SOL     OW69606   5.042   7.681   4.879  0.3494 -0.5037 -0.3470
22722SOL    HW169607   4.980   7.610   4.898 -0.3481  0.0230 -0.6022
22722SOL    HW269608   5.001   7.729   4.807  0.7940  0.1826 -0.1493
22723SOL     OW69609   4.081   1.313   5.118 -0.2372  0.0152  0.7533
22723SOL    HW169610   4.025   1.382   5.152 -1.3282 -0.7242  0.5063
22723SOL    HW269611   4.168   1.353   5.114 -0.4786  0.7925  2.3561
22724SOL     OW69612   0.053   1.329   4.952  0.4659  0.5437 -0.0978
22724SOL    HW169613   0.130   1.271   4.956  0.0584 -0.0959 -1.0627
22724SOL    HW269614   0.079   1.407   5.000  1.6736  0.2746 -0.2831
22725SOL     OW69615   3.577   7.517   8.752 -0.8684  0.2051 -0.0902
22725SOL    HW169616   3.544   7.487   8.667 -1.4824  1.3923 -0.2934
22725SOL    HW269617   3.507   7.573   8.786 -0.0763  0.7878  0.6089
22726SOL     OW69618   4.651   1.268   2.873 -0.3463 -0.2504  0.3414
22726SOL    HW169619   4.691   1.223   2.799  1.1824 -0.7985  1.4572
22726SOL    HW269620   4.558   1.275   2.850 -0.2196 -1.9713 -0.8325
22727SOL     OW69621   5.539   5.653   5.495 -0.1722 -0.2800 -0.2384
22727SOL    HW169622   5.462   5.603   5.525 -2.5074  3.8992  1.5988
22727SOL    HW269623   5.516   5.682   5.407 -2.1341  2.9706  1.1418
22728SOL     OW69624   2.643   3.142   4.419 -0.5412  0.5753  0.8100
22728SOL    HW169625   2.686   3.227   4.404  2.1741 -0.7991  0.2252
22728SOL    HW269626   2.614   3.114   4.332  1.0033 -0.2621  0.5319
22729SOL     OW69627   3.550   7.903   9.399 -0.2688  0.5699  0.0186
22729SOL    HW169628   3.507   7.818   9.410 -0.2172  0.6834  1.1833
22729SOL    HW269629   3.558   7.913   9.304  0.7656 -1.2591 -0.1515
22730SOL     OW69630   1.200   7.178  11.100  0.2498 -0.1198 -0.4561
22730SOL    HW169631   1.274   7.151  11.154  0.4816 -0.7622 -1.0872
22730SOL    HW269632   1.240   7.208  11.019 -0.0973  0.8546 -0.2812
22731SOL     OW69633   1.081   5.301   7.422  0.0570  0.6963  0.1791
22731SOL    HW169634   1.039   5.218   7.400 -0.5950  1.5384 -2.0512
22731SOL    HW269635   1.168   5.277   7.454  0.3051 -0.8148 -1.5226
22732SOL     OW69636   5.739   6.649   7.718 -0.0979 -0.5389 -0.6138
22732SOL    HW169637   5.707   6.731   7.680  1.2815  1.4010  2.1036
22732SOL    HW269638   5.813   6.624   7.662  1.0425  1.4907 -0.0969
22733SOL     OW69639   2.378   6.896   9.579  0.1789 -0.1367  0.2789
22733SOL    HW169640   2.377   6.801   9.575 -0.2357 -0.1090 -0.4821
22733SOL    HW269641   2.361   6.917   9.671  1.9357 -0.8075  0.7912
22734SOL     OW69642   4.941   6.725   9.578 -0.1354 -0.4238  0.1092
22734SOL    HW169643   4.855   6.701   9.613 -1.7380  2.0043 -1.8603
22734SOL    HW269644   4.957   6.813   9.611  0.4816  0.0515 -1.3700
22735SOL     OW69645   1.021   1.974   2.216  0.1485  0.0086  0.1711
22735SOL    HW169646   1.001   1.897   2.163  1.2698  1.2764 -2.2597
22735SOL    HW269647   1.103   1.951   2.261 -0.6785 -0.9880  1.2260
22736SOL     OW69648   0.206   7.080   6.937 -0.4939 -0.2856  0.5260
22736SOL    HW169649   0.211   7.084   7.032 -0.9911 -1.1677  0.5994
22736SOL    HW269650   0.209   7.172   6.908  2.2824 -0.0455  1.2308
22737SOL     OW69651   3.526   0.889   0.845  0.3838  0.5845  0.9536
22737SOL    HW169652   3.435   0.911   0.825 -0.0450 -0.8457  1.2044
22737SOL    HW269653   3.533   0.899   0.939  0.5694  0.9623  0.9011
22738SOL     OW69654   1.748   3.306  10.877  0.3871 -0.1231  0.3656
22738SOL    HW169655   1.719   3.242  10.811  0.1985  0.2096  0.1238
22738SOL    HW269656   1.743   3.390  10.832  2.0669 -0.0804  0.2150
22739SOL     OW69657   6.326   3.097   7.751  0.1009 -0.7985 -0.2600
22739SOL    HW169658   6.305   3.091   7.844 -0.9541  0.1244 -0.4079
22739SOL    HW269659   6.396   3.162   7.746 -0.7168  0.0983 -0.2105
22740SOL     OW69660   3.936   1.631   3.366 -0.4194 -0.1503  0.3716
22740SOL    HW169661   3.947   1.686   3.289  1.5539  0.5024  1.0584
22740SOL    HW269662   4.003   1.662   3.427 -1.6789 -0.8789  2.2180
22741SOL     OW69663   2.090   0.740  10.446  0.3492 -0.0338 -0.9187
22741SOL    HW169664   2.106   0.691  10.366  0.7128 -1.1293 -0.1972
22741SOL    HW269665   2.082   0.673  10.514  1.5433  0.9317  0.2232
22742SOL     OW69666   5.626   4.682   4.930 -0.0013 -0.1706 -0.3647
22742SOL    HW169667   5.590   4.767   4.955  0.3043 -0.2211  0.2584
22742SOL    HW269668   5.588   4.664   4.844  0.5750  0.9811 -0.8741
22743SOL     OW69669   6.612   6.075   8.897  0.0293 -0.1319  0.2092
22743SOL    HW169670   6.655   6.027   8.968 -0.0625  0.5595  0.7476
22743SOL    HW269671   6.603   6.164   8.931  1.8201  0.7605 -1.4240
22744SOL     OW69672   4.477   0.206   3.164 -0.0638  0.3258 -0.2387
22744SOL    HW169673   4.540   0.236   3.097 -1.5181 -1.4625 -2.5744
22744SOL    HW269674   4.447   0.287   3.205  1.4252  1.4684 -1.2360
22745SOL     OW69675   6.300   5.508   3.808  0.5706 -0.0274  0.1994
22745SOL    HW169676   6.287   5.594   3.848  1.1441  1.3292 -2.3303
22745SOL    HW269677   6.228   5.499   3.746  0.5934 -1.3287  0.3350
22746SOL     OW69678   2.775   3.112   8.814 -0.3276  0.2665  0.0163
22746SOL    HW169679   2.728   3.055   8.874  1.0277  0.0595  0.9118
22746SOL    HW269680   2.867   3.103   8.838  0.4916 -0.9645 -3.0189
22747SOL     OW69681   6.271   7.602   1.069  0.0762  0.0025  0.7458
22747SOL    HW169682   6.281   7.623   0.976  0.2076 -1.8043  0.3030
22747SOL    HW269683   6.215   7.524   1.070 -0.1857  0.1783  2.2090
22748SOL     OW69684   3.856   6.917  10.652  0.1148  0.0881  0.3180
22748SOL    HW169685   3.938   6.878  10.622  0.8049  0.6773  1.3868
22748SOL    HW269686   3.813   6.846  10.700 -0.7734 -0.7115 -1.5630
22749SOL     OW69687   2.904   5.838  11.532 -0.5722  0.3461  0.4269
22749SOL    HW169688   2.840   5.891  11.485  1.2344  0.0879 -2.5792
22749SOL    HW269689   2.887   5.748  11.503  0.3443  0.1017  0.6065
22750SOL     OW69690   3.953   7.501   2.970 -0.1591 -0.4096 -0.1291
22750SOL    HW169691   3.916   7.461   3.049  3.0781  0.7979  2.2660
22750SOL    HW269692   3.943   7.596   2.985  0.4249 -0.1592 -1.2303
22751SOL     OW69693   6.787   5.352   3.686 -0.0744  0.2032 -0.1194
22751SOL    HW169694   6.863   5.366   3.742  1.3018  1.0435 -2.0580
22751SOL    HW269695   6.732   5.290   3.734  1.7641 -0.3117  1.4286
22752SOL     OW69696   5.473   7.286   4.816 -0.0040  0.0719  0.0319
22752SOL    HW169697   5.554   7.338   4.806 -0.4147  0.7493  0.1717
22752SOL    HW269698   5.428   7.326   4.890 -0.9198  0.2948 -0.6301
22753SOL     OW69699   2.340   4.699   4.020  0.7250  0.4933  0.0593
22753SOL    HW169700   2.267   4.677   3.962  1.2420 -1.2799  0.0317
22753SOL    HW269701   2.375   4.780   3.984 -0.1120  0.4150 -0.9983
22754SOL     OW69702   2.140   7.042   5.826 -0.3884  0.3497  0.2301
22754SOL    HW169703   2.119   6.949   5.829 -0.2688  0.3479  1.8174
22754SOL    HW269704   2.216   7.051   5.884 -1.0992  1.5904  1.0111
22755SOL     OW69705   3.983   2.757  10.851  0.2501 -0.0557  0.0844
22755SOL    HW169706   3.953   2.714  10.771  0.6412  0.4735 -0.3463
22755SOL    HW269707   4.078   2.766  10.840  0.1385  1.2128  0.0284
22756SOL     OW69708   7.109   0.038   3.151 -0.2635  0.7874  0.6612
22756SOL    HW169709   7.071   0.079   3.073 -1.6299  0.9658  1.3840
22756SOL    HW269710   7.056   0.071   3.224  1.5924  1.4211  1.8137
22757SOL     OW69711   3.900   5.503  12.033  0.4516  0.2155  0.2396
22757SOL    HW169712   3.907   5.462  12.119 -0.6352  0.4200  0.4353
22757SOL    HW269713   3.852   5.584  12.048  1.1993  0.7872 -0.3976
22758SOL     OW69714   0.658   1.333   9.596 -0.1141  0.0354  0.2225
22758SOL    HW169715   0.569   1.348   9.629 -0.2792  2.8758 -1.2002
22758SOL    HW269716   0.650   1.259   9.536 -1.3922 -0.0619  0.4875
22759SOL     OW69717   0.561   1.978   2.900 -0.1280 -0.4181  0.3507
22759SOL    HW169718   0.540   1.885   2.894 -0.1520 -0.3515 -0.9299
22759SOL    HW269719   0.497   2.020   2.842  0.6962  0.2472 -0.1027
22760SOL     OW69720   6.938   0.616   2.579 -0.6738 -0.5742  0.4380
22760SOL    HW169721   6.982   0.680   2.635  0.5974  1.8539 -2.9886
22760SOL    HW269722   6.845   0.634   2.591 -0.3774  0.9611  0.6626
22761SOL     OW69723   7.244   5.350   8.304  0.6366  0.2040 -0.0271
22761SOL    HW169724   7.194   5.373   8.226 -0.2526  0.4081  0.5960
22761SOL    HW269725   7.209   5.264   8.330  0.3693  0.4980  0.6011
22762SOL     OW69726   7.649   6.460  10.779 -0.1001  0.0447  0.9099
22762SOL    HW169727   7.679   6.462  10.869  1.7863 -1.2554  0.3661
22762SOL    HW269728   7.710   6.402  10.734 -1.6632 -0.2781 -0.9713
22763SOL     OW69729   1.181   1.075  11.789 -0.1491  0.9306 -0.3974
22763SOL    HW169730   1.222   1.049  11.706 -0.0178 -1.3832  0.3327
22763SOL    HW269731   1.252   1.117  11.838  0.3774  0.3073 -0.6100
22764SOL     OW69732   3.027   5.761  10.118 -0.1836  0.0575 -0.6571
22764SOL    HW169733   2.949   5.706  10.119 -1.6878  2.0618 -0.3412
22764SOL    HW269734   3.076   5.733  10.195 -0.2127 -1.6991 -1.2344
22765SOL     OW69735   6.760   6.714   9.873 -0.3418 -0.4496 -0.2171
22765SOL    HW169736   6.755   6.803   9.838 -1.5003 -0.7177 -0.7818
22765SOL    HW269737   6.752   6.658   9.796  1.2915 -1.0695  0.0225
22766SOL     OW69738   4.966   5.090   3.640  0.2119 -0.3671 -0.2357
22766SOL    HW169739   4.941   5.062   3.552  1.1672  1.9196 -1.3265
22766SOL    HW269740   4.973   5.009   3.690 -0.0432 -1.7731 -2.3508
22767SOL     OW69741   4.177   2.309   2.101 -0.5985  0.4068  0.1050
22767SOL    HW169742   4.112   2.240   2.086 -2.0205  1.7368 -0.1441
22767SOL    HW269743   4.200   2.338   2.013  2.3561 -1.7300  0.0119
22768SOL     OW69744   5.864   2.489  10.518 -0.6203 -0.2392  0.0179
22768SOL    HW169745   5.853   2.470  10.612 -1.4486  0.2441  0.0191
22768SOL    HW269746   5.911   2.413  10.484  0.3330 -0.1038  0.9601
22769SOL     OW69747   0.637   7.138   2.937  0.0593 -0.4116 -0.6767
22769SOL    HW169748   0.693   7.145   3.015  0.2699 -1.0612 -0.7607
22769SOL    HW269749   0.667   7.208   2.880 -0.7446  0.7000  0.2157
22770SOL     OW69750   2.143   5.182   6.223 -0.8289  0.2974 -0.4677
22770SOL    HW169751   2.080   5.173   6.295  0.0167  0.6043  0.3372
22770SOL    HW269752   2.196   5.258   6.249  0.5190 -0.5766 -0.6200
22771SOL     OW69753   1.135   6.549  10.128  0.0646 -0.3529  0.4835
22771SOL    HW169754   1.047   6.587  10.119  0.9408  1.4714 -0.8950
22771SOL    HW269755   1.130   6.497  10.209 -2.1924 -0.0873  0.5823
22772SOL     OW69756   0.528   6.554   9.523  0.0438  0.0289  0.0457
22772SOL    HW169757   0.585   6.529   9.595 -1.3667 -0.3408  1.0742
22772SOL    HW269758   0.493   6.471   9.490 -2.1386  0.3317  1.3633
22773SOL     OW69759   1.888   1.054  11.994 -0.1378  0.2166  0.0786
22773SOL    HW169760   1.870   1.063  11.900 -0.3176 -2.7131 -0.2563
22773SOL    HW269761   1.801   1.051  12.034 -0.0765  0.2435  0.2148
22774SOL     OW69762   1.888   5.027   2.276 -0.5662 -0.4608 -0.1990
22774SOL    HW169763   1.813   5.081   2.305 -0.5918 -0.6673  0.1238
22774SOL    HW269764   1.952   5.091   2.244  0.1479 -0.0737  1.8521
22775SOL     OW69765   7.616   4.185   8.628 -0.5957 -0.2305  0.0043
22775SOL    HW169766   7.684   4.136   8.581  0.7105 -0.0474  1.6163
22775SOL    HW269767   7.660   4.264   8.658 -1.6923  0.1855  0.5706
22776SOL     OW69768   7.487   2.085   9.030  0.9233 -0.6682  0.6045
22776SOL    HW169769   7.456   2.159   9.081 -0.3458 -0.7526 -0.0020
22776SOL    HW269770   7.474   2.111   8.939  4.1744 -0.0607  0.1710
22777SOL     OW69771   3.660   2.285   0.714  0.7417  0.1908 -0.1164
22777SOL    HW169772   3.727   2.351   0.732 -0.2855  1.4128 -0.5779
22777SOL    HW269773   3.592   2.300   0.780  0.4564 -0.3487 -0.2773
22778SOL     OW69774   2.637   6.477  10.950 -0.0154 -0.0252 -0.2435
22778SOL    HW169775   2.635   6.446  10.859 -0.3457  0.7676 -0.5068
22778SOL    HW269776   2.625   6.571  10.944  1.1143  0.1871  0.5543
22779SOL     OW69777   1.124   4.039  10.286 -0.2537 -0.6119  0.1251
22779SOL    HW169778   1.079   4.090  10.217  0.8245 -0.3873 -0.4320
22779SOL    HW269779   1.215   4.036  10.257  0.2042 -0.5833  1.5231
22780SOL     OW69780   6.199   6.036   8.178  0.1199  0.1605  0.5512
22780SOL    HW169781   6.221   6.129   8.173  0.8743 -0.0265  0.2220
22780SOL    HW269782   6.177   6.012   8.088  1.9050 -0.4272  0.2200
22781SOL     OW69783   6.614   1.830   0.906  0.3810 -0.2492  0.6615
22781SOL    HW169784   6.694   1.818   0.958 -0.6328  2.4038  3.0994
22781SOL    HW269785   6.607   1.924   0.894 -1.0769 -0.5799 -1.8117
22782SOL     OW69786   4.083   2.872  11.561  0.2085 -0.6235 -0.1881
22782SOL    HW169787   4.111   2.859  11.470 -2.3488  1.4950 -1.4325
22782SOL    HW269788   4.120   2.956  11.586  0.1248 -0.7528  0.3734
22783SOL     OW69789   2.580   1.527   2.505  0.0174 -0.4980 -0.1352
22783SOL    HW169790   2.497   1.574   2.513 -0.0082 -0.2525 -1.5345
22783SOL    HW269791   2.562   1.456   2.444  0.6387 -0.9358  0.1756
22784SOL     OW69792   0.836   3.383  12.065  0.0873 -0.3686  0.6600
22784SOL    HW169793   0.828   3.413  11.975  0.6186 -0.2380  0.6579
22784SOL    HW269794   0.749   3.397  12.102  0.4861  1.8916  0.8818
22785SOL     OW69795   2.854   1.845   7.336 -0.1529 -0.6184  0.0047
22785SOL    HW169796   2.769   1.814   7.308 -0.8819  1.3403 -0.1303
22785SOL    HW269797   2.865   1.929   7.292  1.9665 -0.9282 -0.1713
22786SOL     OW69798   5.483   2.257   7.956 -0.1348  0.1254  0.0736
22786SOL    HW169799   5.453   2.180   7.907 -0.0711 -0.4569  0.9163
22786SOL    HW269800   5.448   2.244   8.045  2.1203 -0.3213  0.9610
22787SOL     OW69801   3.182   5.937   9.476  0.8122 -0.6245  0.2810
22787SOL    HW169802   3.188   6.015   9.531  0.9850  0.5935 -1.3874
22787SOL    HW269803   3.262   5.939   9.424  0.7008 -1.8097  0.0463
22788SOL     OW69804   4.395   7.116   4.845 -0.0194 -0.0466  0.5216
22788SOL    HW169805   4.403   7.038   4.900 -0.3386  0.5341  1.4175
22788SOL    HW269806   4.386   7.188   4.907  0.4059  0.7253 -0.2896
22789SOL     OW69807   0.297   1.815   8.085 -0.6788 -0.0038 -0.1446
22789SOL    HW169808   0.311   1.770   8.168 -0.4971  1.3785  0.6077
22789SOL    HW269809   0.367   1.881   8.082 -0.9053  0.2040 -1.2208
22790SOL     OW69810   1.505   5.979  11.627 -0.2018 -0.3769  0.2022
22790SOL    HW169811   1.488   6.024  11.544  0.4145 -0.0890  0.2264
22790SOL    HW269812   1.484   6.044  11.694 -1.8624 -0.9941  0.3259
22791SOL     OW69813   5.495   7.523   1.133 -0.3047 -0.0237 -0.1552
22791SOL    HW169814   5.476   7.609   1.170  0.9176  0.2068 -0.0291
22791SOL    HW269815   5.431   7.465   1.176  0.3077  0.4360  1.4748
22792SOL     OW69816   4.786   6.970   8.530  0.0503  0.1643  0.1805
22792SOL    HW169817   4.737   7.029   8.586 -1.4236  0.6611 -1.5454
22792SOL    HW269818   4.727   6.950   8.457  1.4051 -1.4711 -0.5595
22793SOL     OW69819   2.114   1.316   0.396 -0.2577 -0.0060  0.3102
22793SOL    HW169820   2.033   1.366   0.405 -0.6625 -0.6970  0.6170
22793SOL    HW269821   2.139   1.295   0.486 -0.0797 -0.3224  0.1877
22794SOL     OW69822   4.060   3.193   5.337 -1.1527 -0.2584 -0.0585
22794SOL    HW169823   4.118   3.148   5.275  0.1550  2.9818 -1.4254
22794SOL    HW269824   4.020   3.123   5.388  1.4446 -2.8527 -1.3090
22795SOL     OW69825   5.521   3.780  11.081  0.3753  0.1919  0.2108
22795SOL    HW169826   5.616   3.776  11.076  0.3983  0.0533  0.7568
22795SOL    HW269827   5.495   3.836  11.008  0.9992  1.7550  1.1453
22796SOL     OW69828   1.249   3.004  12.091  0.1110 -0.2517 -0.0782
22796SOL    HW169829   1.223   3.090  12.056 -1.6138 -0.3103  0.9851
22796SOL    HW269830   1.234   3.011  12.185 -2.9639 -2.6553 -0.2647
22797SOL     OW69831   6.167   7.725   5.210  0.0695  0.2593  0.2397
22797SOL    HW169832   6.184   7.639   5.248 -0.3932 -0.3400 -0.8519
22797SOL    HW269833   6.072   7.736   5.220 -0.1496 -0.1518 -1.1704
22798SOL     OW69834   0.824   7.521   0.902 -0.0702 -0.1849 -0.4895
22798SOL    HW169835   0.762   7.469   0.853  0.7352 -1.6775  0.0250
22798SOL    HW269836   0.853   7.589   0.840 -1.1019 -0.3585 -1.1753
22799SOL     OW69837   4.250   2.274   3.031 -0.2094 -0.1876  0.2383
22799SOL    HW169838   4.157   2.293   3.017  0.1306  0.4107 -1.3731
22799SOL    HW269839   4.265   2.191   2.985  0.5337  0.8965 -1.5768
22800SOL     OW69840   0.064   6.377   6.942 -0.4202  0.2318 -0.1030
22800SOL    HW169841  -0.004   6.330   6.896  0.6337 -0.1066 -1.3796
22800SOL    HW269842   0.060   6.466   6.907 -0.1679  0.1966 -0.2233
22801SOL     OW69843   3.220   1.660  10.694  0.4700  0.4921  0.0879
22801SOL    HW169844   3.186   1.744  10.724 -0.2630  0.2764 -0.1173
22801SOL    HW269845   3.212   1.603  10.771 -1.4659 -0.0774 -0.4678
22802SOL     OW69846   3.543   3.369   6.877  0.6852  0.0724 -0.8011
22802SOL    HW169847   3.525   3.427   6.951 -0.9393 -0.4380 -0.7614
22802SOL    HW269848   3.607   3.307   6.910 -1.4860 -1.4135  0.8997
22803SOL     OW69849   1.577   4.221   4.761 -0.9096  0.2535  0.3141
22803SOL    HW169850   1.512   4.181   4.702 -0.6178  1.0359 -0.5653
22803SOL    HW269851   1.660   4.215   4.713 -0.4214 -0.2729  1.2131
22804SOL     OW69852   6.418   6.481   5.265 -0.4719 -0.0845  0.2766
22804SOL    HW169853   6.411   6.523   5.179  1.2319  0.0205  0.1499
22804SOL    HW269854   6.399   6.551   5.328 -1.0260  0.0110  0.0048
22805SOL     OW69855   1.985   5.573   8.116 -0.1895  0.1235  0.2936
22805SOL    HW169856   1.928   5.542   8.045  0.8085  2.1637 -1.5311
22805SOL    HW269857   1.924   5.608   8.182 -1.1395  1.0800 -1.0254
22806SOL     OW69858   6.028   5.594  12.304  0.4226  0.5239 -0.5789
22806SOL    HW169859   6.000   5.672  12.350 -0.0745 -0.4521  0.8350
22806SOL    HW269860   5.951   5.537  12.302  1.2259 -0.6328 -0.0375
22807SOL     OW69861   6.629   5.713  10.861 -0.5735 -0.6777 -0.5428
22807SOL    HW169862   6.659   5.782  10.802  0.6503 -0.9570 -0.2737
22807SOL    HW269863   6.584   5.650  10.805 -1.4240  0.1661 -0.8344
22808SOL     OW69864   5.328   4.277  12.191 -0.0984 -0.0361  0.7416
22808SOL    HW169865   5.360   4.232  12.112 -0.1554 -1.3130  1.4219
22808SOL    HW269866   5.258   4.221  12.224 -1.2399  1.3554  0.7855
22809SOL     OW69867   2.103   4.805   7.800  0.4711 -0.3195 -0.3235
22809SOL    HW169868   2.029   4.773   7.851 -1.0608  1.0484 -1.5731
22809SOL    HW269869   2.114   4.741   7.730 -0.2629  0.0197 -0.7623
22810SOL     OW69870   5.157   2.877   5.418 -0.0267  0.3268 -0.5951
22810SOL    HW169871   5.112   2.943   5.365 -0.4782 -0.6283 -1.4380
22810SOL    HW269872   5.175   2.806   5.357  2.1629  0.4390 -0.1469
22811SOL     OW69873   2.813   7.463   1.258  0.1886  0.1871  0.0210
22811SOL    HW169874   2.873   7.535   1.241 -0.5249  1.1363  1.3311
22811SOL    HW269875   2.840   7.394   1.197  1.1940  1.3723 -0.9273
22812SOL     OW69876   4.540   5.017  11.401 -0.0788  0.1091 -0.3024
22812SOL    HW169877   4.591   4.938  11.423 -0.2531  0.3385  0.9691
22812SOL    HW269878   4.449   4.987  11.400 -0.2039  0.4238  0.8485
22813SOL     OW69879   3.456   2.591   6.798  0.1486  0.1063 -0.2653
22813SOL    HW169880   3.459   2.583   6.894  2.1106 -1.3894 -0.3789
22813SOL    HW269881   3.407   2.514   6.769  0.6525 -0.1283 -0.5069
22814SOL     OW69882   0.769   3.464   5.845  0.4922 -0.2624 -1.0669
22814SOL    HW169883   0.728   3.378   5.853 -1.5409  0.7156 -0.2950
22814SOL    HW269884   0.737   3.498   5.762 -2.4253  1.4688  0.5785
22815SOL     OW69885   2.473   7.451   2.417 -0.3852  0.0899  0.6125
22815SOL    HW169886   2.558   7.413   2.393 -0.4868  0.2036  0.0646
22815SOL    HW269887   2.420   7.444   2.338 -1.1422 -0.6731  1.1613
22816SOL     OW69888   3.996   7.894   2.719 -0.0077  0.1040 -0.6343
22816SOL    HW169889   3.918   7.948   2.706  0.6152  1.1360 -0.2295
22816SOL    HW269890   3.985   7.822   2.657 -2.1510 -0.7943  0.6859
22817SOL     OW69891   3.592   2.567   3.065 -0.2162  0.5886  0.1279
22817SOL    HW169892   3.596   2.487   3.013  1.7468  0.8515 -0.2363
22817SOL    HW269893   3.545   2.543   3.144 -1.2792 -0.4176 -0.7831
22818SOL     OW69894   3.027   6.159   5.511 -0.2110 -0.1863  0.0767
22818SOL    HW169895   3.001   6.250   5.503  0.4692  0.0412  0.3446
22818SOL    HW269896   3.122   6.160   5.494 -0.1864 -0.8290  0.1510
22819SOL     OW69897   0.535   7.894   3.779  0.0701 -0.3628 -0.4225
22819SOL    HW169898   0.514   7.810   3.739  0.9437  0.4591 -2.8050
22819SOL    HW269899   0.624   7.882   3.814  0.1814 -0.4526 -0.7307
22820SOL     OW69900   2.127   5.688   7.929 -0.3015  0.0802  0.2146
22820SOL    HW169901   2.096   5.679   8.019 -0.3805 -3.1684 -0.0401
22820SOL    HW269902   2.049   5.712   7.879 -0.6408  0.0521  0.7264
22821SOL     OW69903   7.675   0.069   4.739 -0.1373 -0.4747  0.4139
22821SOL    HW169904   7.616   0.143   4.753  0.4327 -0.1529  1.1626
22821SOL    HW269905   7.627   0.011   4.680  0.0546  1.2650 -1.5552
22822SOL     OW69906   1.684   4.223  11.603  1.0583  0.3980 -0.2170
22822SOL    HW169907   1.680   4.242  11.696 -2.9597  1.1046 -0.3241
22822SOL    HW269908   1.675   4.128  11.596 -2.5571  0.5428  0.2828
22823SOL     OW69909   4.964   3.954   5.499 -0.1217  0.0269  0.1711
22823SOL    HW169910   4.982   3.908   5.581  0.1495  1.2477  0.8187
22823SOL    HW269911   5.048   3.958   5.454 -0.1517 -0.1226  0.0998
22824SOL     OW69912   6.421   2.687   1.737  0.5707  0.4482  0.3965
22824SOL    HW169913   6.457   2.766   1.698 -0.9911  1.3553  0.7169
22824SOL    HW269914   6.441   2.694   1.830 -1.2121  1.4531  0.7437
22825SOL     OW69915   0.119   7.537   6.275  0.4706 -0.3830 -0.4424
22825SOL    HW169916   0.113   7.606   6.210  2.3282 -1.3718 -1.7272
22825SOL    HW269917   0.053   7.472   6.248 -0.8883  0.5696  0.4562
22826SOL     OW69918   7.613   0.664   8.421  0.5868 -0.3954 -0.0347
22826SOL    HW169919   7.567   0.593   8.466  0.8111 -1.5297 -1.5235
22826SOL    HW269920   7.660   0.621   8.349  2.1380  1.0335  0.0496
22827SOL     OW69921   0.854   6.679   2.621 -0.3911  0.7547  0.8066
22827SOL    HW169922   0.851   6.686   2.526 -0.5090  1.9421  0.8736
22827SOL    HW269923   0.766   6.705   2.650 -0.5779 -0.2826  1.2215
22828SOL     OW69924   0.515   6.185  11.843 -0.7739 -0.0401 -0.2019
22828SOL    HW169925   0.458   6.252  11.805 -0.7713 -0.2436 -0.5728
22828SOL    HW269926   0.546   6.223  11.925  0.1525  0.9009 -0.9571
22829SOL     OW69927   0.016   3.471   8.406 -0.0062 -0.1968 -0.1527
22829SOL    HW169928   0.090   3.523   8.375 -1.7188  2.2374 -0.4422
22829SOL    HW269929  -0.050   3.536   8.432 -0.9644 -2.1781  2.9311
22830SOL     OW69930   0.707   6.816   1.369 -0.3786 -0.2955  0.0540
22830SOL    HW169931   0.623   6.781   1.398 -0.7785 -0.2675 -1.0243
22830SOL    HW269932   0.714   6.788   1.278  0.4103  0.3894 -0.1026
22831SOL     OW69933   0.913   2.034   0.494 -0.0186  0.5209 -0.3148
22831SOL    HW169934   0.993   1.996   0.456 -0.0784 -0.5525  0.6010
22831SOL    HW269935   0.842   1.978   0.463 -0.3737  1.2035 -0.7527
22832SOL     OW69936   0.898   0.029   7.199  0.1066 -0.3960  0.0754
22832SOL    HW169937   0.949   0.053   7.122 -0.4043 -1.7416 -0.7138
22832SOL    HW269938   0.823  -0.019   7.164 -0.0109 -1.2483  1.4223
22833SOL     OW69939   4.944   2.864   0.834  0.3954  0.2859  0.0223
22833SOL    HW169940   4.897   2.948   0.839  0.1111  0.1100  0.4169
22833SOL    HW269941   4.973   2.858   0.743  1.7868  1.5484  0.3535
22834SOL     OW69942   5.490   2.545   4.816 -0.0183 -0.0645 -0.0459
22834SOL    HW169943   5.512   2.497   4.896  0.9810 -0.1150 -0.3291
22834SOL    HW269944   5.415   2.600   4.840 -0.1013 -0.5153  0.7542
22835SOL     OW69945   2.488   0.265   6.700 -0.4045 -0.1587 -0.2722
22835SOL    HW169946   2.398   0.272   6.730 -0.3983  0.8777 -0.4368
22835SOL    HW269947   2.538   0.240   6.779 -0.8447 -0.8719 -0.2160
22836SOL     OW69948   1.467   0.096   6.710  0.0095 -0.3285  0.2926
22836SOL    HW169949   1.436   0.154   6.641  1.3919 -0.2810 -0.3143
22836SOL    HW269950   1.418   0.122   6.788 -1.8644 -0.6420 -0.7345
22837SOL     OW69951   7.094   2.421   0.335 -0.0983  0.4919 -0.4126
22837SOL    HW169952   7.002   2.432   0.360 -0.8360 -0.8598 -2.1996
22837SOL    HW269953   7.114   2.499   0.284  0.3173  1.5840  1.3464
22838SOL     OW69954   5.631   4.237   6.992 -0.1406  0.0687  0.0197
22838SOL    HW169955   5.554   4.243   6.935 -0.1841 -1.4932 -0.1309
22838SOL    HW269956   5.669   4.325   6.990 -0.3865  0.1919 -2.0850
22839SOL     OW69957   4.338   2.011   2.461  0.1419 -0.1735  0.0277
22839SOL    HW169958   4.309   2.096   2.429  0.5629 -0.9698 -2.8202
22839SOL    HW269959   4.313   1.950   2.392  1.9410 -1.9989  0.8775
22840SOL     OW69960   5.141   0.609   3.105 -0.0857 -0.6033 -0.4209
22840SOL    HW169961   5.068   0.577   3.052 -0.1479  1.7746 -1.9041
22840SOL    HW269962   5.110   0.599   3.196 -1.8897 -0.5304 -0.9739
22841SOL     OW69963   0.665   4.596   0.835 -0.0264 -0.1434  0.3414
22841SOL    HW169964   0.722   4.525   0.805  0.6055 -0.2335  1.6975
22841SOL    HW269965   0.640   4.572   0.924 -1.7649  0.1767 -0.0185
22842SOL     OW69966   4.024   0.544  10.009 -0.7042 -0.0920 -0.1331
22842SOL    HW169967   3.983   0.565  10.093  2.3232 -0.3770  1.5779
22842SOL    HW269968   4.069   0.625   9.984 -1.3722 -0.0914 -1.3937
22843SOL     OW69969   7.139   1.342   8.955 -0.0578 -0.2091  0.1111
22843SOL    HW169970   7.074   1.311   9.018 -0.5314 -0.0571 -0.2970
22843SOL    HW269971   7.219   1.352   9.006 -0.3236 -0.5114  0.5943
22844SOL     OW69972   3.691   1.287   3.592  0.1790 -0.6867  0.4515
22844SOL    HW169973   3.600   1.278   3.564  0.4804 -1.4228 -0.3459
22844SOL    HW269974   3.740   1.293   3.510  0.8357 -0.1326  0.8770
22845SOL     OW69975   0.079   7.365   2.476 -0.3348  0.3207  0.6110
22845SOL    HW169976   0.166   7.340   2.443 -0.3921 -1.5511  1.7525
22845SOL    HW269977   0.019   7.305   2.432 -0.9363  0.8847  0.6611
22846SOL     OW69978   0.282   1.903  12.137 -0.5957 -0.6617  0.0746
22846SOL    HW169979   0.218   1.972  12.118 -0.2693 -0.4385 -0.2208
22846SOL    HW269980   0.365   1.940  12.110 -0.3043 -0.8593  0.6803
22847SOL     OW69981   7.626   3.944   7.937  0.1092 -0.0958 -0.0912
22847SOL    HW169982   7.636   4.029   7.894  0.4240  0.2245  0.5979
22847SOL    HW269983   7.557   3.959   8.002 -0.3532 -0.5694 -0.4686
22848SOL     OW69984   7.530   7.591   3.466  0.7652  0.1616  0.0560
22848SOL    HW169985   7.562   7.517   3.517  0.4533  0.5425  0.8122
22848SOL    HW269986   7.502   7.655   3.531 -1.2086 -0.0148 -0.5579
22849SOL     OW69987   2.068   6.318   6.353  0.4764  0.5736 -0.0659
22849SOL    HW169988   2.020   6.393   6.388  1.3827  0.3611  1.7401
22849SOL    HW269989   2.000   6.254   6.332 -0.2001  1.2752 -0.0560
22850SOL     OW69990   3.414   3.264   9.325  0.0854 -0.3054 -0.0887
22850SOL    HW169991   3.381   3.199   9.387 -1.8125 -0.1097 -0.8549
22850SOL    HW269992   3.471   3.214   9.266 -3.0082 -1.8481 -2.0111
22851SOL     OW69993   2.820   0.866   7.649 -0.3717 -0.0884 -0.8819
22851SOL    HW169994   2.909   0.839   7.627 -0.2207 -0.4331  0.0962
22851SOL    HW269995   2.776   0.785   7.677 -0.4481  0.3423  0.3351
22852SOL     OW69996   7.925   4.156   1.214 -0.7230  0.0973  0.0118
22852SOL    HW169997   7.830   4.160   1.200 -0.6898 -0.7070 -0.5628
22852SOL    HW269998   7.956   4.243   1.190 -1.1194 -0.1522 -1.5772
22853SOL     OW69999   3.129   1.586   1.114 -0.3464 -0.5852 -0.1621
22853SOL    HW170000   3.106   1.494   1.126  0.5652 -1.0626 -1.8115
22853SOL    HW270001   3.223   1.590   1.131 -0.3260 -0.0132 -0.3825
22854SOL     OW70002   3.709   2.446  10.415  0.5643 -0.1175 -0.3986
22854SOL    HW170003   3.789   2.394  10.417 -0.0569 -1.0737  1.6320
22854SOL    HW270004   3.640   2.384  10.396 -0.0233  0.1795  0.6828
22855SOL     OW70005   4.678   5.562   0.098 -0.3180  0.0385 -0.1418
22855SOL    HW170006   4.742   5.491   0.099 -1.0206 -0.6501 -1.3198
22855SOL    HW270007   4.730   5.642   0.089  0.4963 -0.2842  1.3731
22856SOL     OW70008   0.662   3.218   8.591 -0.3029  0.4030  0.4955
22856SOL    HW170009   0.692   3.303   8.558 -1.7552 -0.0567 -2.2632
22856SOL    HW270010   0.634   3.237   8.681 -0.8051  2.9138 -0.0915
22857SOL     OW70011   5.387   3.492   6.303  0.6763  0.0724 -0.7208
22857SOL    HW170012   5.342   3.561   6.353  1.5861  0.3846 -0.3035
22857SOL    HW270013   5.328   3.417   6.308 -0.3920  0.8433 -1.2842
22858SOL     OW70014   0.223   5.682   3.572  0.3228  0.5798 -0.1795
22858SOL    HW170015   0.273   5.734   3.635  0.4627 -1.1516  1.2254
22858SOL    HW270016   0.149   5.649   3.622 -1.2106  1.5305 -1.7291
22859SOL     OW70017   7.757   1.245   9.813  0.5640 -0.2308  0.2754
22859SOL    HW170018   7.710   1.272   9.892  0.5030  0.8125 -0.0949
22859SOL    HW270019   7.822   1.315   9.800  0.3357 -0.2028 -0.7875
22860SOL     OW70020   2.728   7.956   5.888  0.2492 -0.5230  0.6292
22860SOL    HW170021   2.668   7.959   5.963  0.2137  1.3029  0.5724
22860SOL    HW270022   2.672   7.932   5.814 -0.1583 -0.1338  0.8070
22861SOL     OW70023   7.004   0.513   4.567 -0.2818 -0.3406  0.6243
22861SOL    HW170024   7.043   0.599   4.559 -2.4301  0.6439 -0.3365
22861SOL    HW270025   7.067   0.454   4.525  0.0091  1.2082 -1.2977
22862SOL     OW70026   3.457   0.156   4.523 -0.2831 -1.1220  0.0381
22862SOL    HW170027   3.410   0.107   4.590 -1.1494 -1.7638 -1.0098
22862SOL    HW270028   3.512   0.218   4.572 -1.3597 -1.1419  1.3139
22863SOL     OW70029   2.626   7.741   1.662  0.2176 -0.0379  0.0721
22863SOL    HW170030   2.537   7.715   1.638 -0.4428 -0.2324  2.4775
22863SOL    HW270031   2.646   7.814   1.603 -1.6921  0.2956 -0.2550
22864SOL     OW70032   2.882   2.527   4.801 -0.4908 -0.1031 -0.1671
22864SOL    HW170033   2.954   2.549   4.741  0.9195 -1.6453  0.8960
22864SOL    HW270034   2.853   2.612   4.835  0.7375  0.5669 -0.7170
22865SOL     OW70035   3.160   6.449  10.562 -0.5927 -0.2647 -0.1781
22865SOL    HW170036   3.214   6.527  10.556  0.7019 -1.2150 -2.0952
22865SOL    HW270037   3.178   6.414  10.649  0.1501  0.6427  0.0470
22866SOL     OW70038   6.920   0.347   1.961  0.1659  0.3603 -0.3389
22866SOL    HW170039   6.838   0.389   1.938 -0.4928 -1.0148 -0.5532
22866SOL    HW270040   6.982   0.420   1.971 -1.4445  1.5702  1.4913
22867SOL     OW70041   6.388   7.181   9.524 -0.2947  0.7189 -0.3830
22867SOL    HW170042   6.409   7.156   9.614  2.5414  0.1385 -1.1104
22867SOL    HW270043   6.325   7.114   9.495 -0.4985  0.3611  0.8414
22868SOL     OW70044   0.548   6.882  12.391 -0.0105  0.0476  0.4496
22868SOL    HW170045   0.572   6.959  12.443 -0.4471  0.9595 -0.6505
22868SOL    HW270046   0.476   6.841  12.440 -1.3735  1.6915 -0.0766
22869SOL     OW70047   3.748   5.733   0.073 -0.1227  0.1055  0.5196
22869SOL    HW170048   3.803   5.784   0.133  0.7344 -0.1885 -0.0037
22869SOL    HW270049   3.795   5.650   0.062  0.4548  0.6793 -1.6572
22870SOL     OW70050   3.041   2.774   6.466  0.0295  0.1889  0.2014
22870SOL    HW170051   2.966   2.781   6.524  0.4721 -2.9099  1.3276
22870SOL    HW270052   3.091   2.854   6.481 -2.5518  1.9767 -0.0156
22871SOL     OW70053   1.753   1.894   9.059  0.1719  0.4304 -0.5789
22871SOL    HW170054   1.684   1.958   9.075  0.0111 -0.2316  1.7069
22871SOL    HW270055   1.727   1.849   8.978 -0.6883  1.9233 -1.1673
22872SOL     OW70056   2.318   1.455   8.094 -0.6852 -0.1439  0.1554
22872SOL    HW170057   2.303   1.414   8.008 -1.4488  0.3744  0.0287
22872SOL    HW270058   2.270   1.537   8.089  1.3145  1.0996  0.1720
22873SOL     OW70059   0.682   2.325   3.210  0.0885 -0.3010  0.1336
22873SOL    HW170060   0.728   2.276   3.278  0.5750  1.1793  0.9148
22873SOL    HW270061   0.667   2.411   3.248  1.9566  1.1918 -2.1677
22874SOL     OW70062   2.415   0.512  12.274 -0.4211  0.4715 -0.0045
22874SOL    HW170063   2.465   0.501  12.355 -0.8016  0.0616  0.1758
22874SOL    HW270064   2.435   0.434  12.222 -0.2921  0.6636 -0.2437
22875SOL     OW70065   5.665   2.710   4.651 -0.1623 -0.1253 -0.4720
22875SOL    HW170066   5.610   2.745   4.581  0.0955  1.8111  0.2247
22875SOL    HW270067   5.603   2.684   4.719 -0.3081  1.0442 -0.1289
22876SOL     OW70068   6.948   4.953   0.473  0.2545 -0.2922  0.0295
22876SOL    HW170069   7.020   4.964   0.535 -0.3379  2.0765  0.4267
22876SOL    HW270070   6.987   4.972   0.388  0.2759  0.3669  0.1740
22877SOL     OW70071   2.947   3.862   9.042  0.0118 -0.5939  0.2316
22877SOL    HW170072   2.993   3.930   8.992  1.8472 -1.0004  1.2834
22877SOL    HW270073   2.911   3.804   8.975 -1.9537  1.5694 -0.7110
22878SOL     OW70074   0.661   5.545   7.282  1.1298  0.0385  0.5069
22878SOL    HW170075   0.574   5.509   7.299  0.5562  1.5356  0.8898
22878SOL    HW270076   0.720   5.492   7.335  0.3158 -0.3205  1.0710
22879SOL     OW70077   4.933   7.039   1.624 -0.3310 -0.7708 -0.0640
22879SOL    HW170078   5.013   6.988   1.633 -0.2027 -0.6318 -0.4200
22879SOL    HW270079   4.866   6.975   1.602 -0.6734 -1.1418  1.8581
22880SOL     OW70080   6.717   0.251   0.158 -0.0028  0.0458  0.0749
22880SOL    HW170081   6.763   0.213   0.083 -1.6134 -0.1913 -0.8372
22880SOL    HW270082   6.786   0.268   0.222  1.5130  0.7627 -1.6532
22881SOL     OW70083   1.066   7.658   6.019  0.3062  0.4210  0.3188
22881SOL    HW170084   0.978   7.642   6.052 -1.2801  3.9862 -1.7063
22881SOL    HW270085   1.055   7.723   5.950  4.2334 -1.1766 -2.1442
22882SOL     OW70086   1.234   2.521   7.392 -0.0078 -0.4248 -0.1477
22882SOL    HW170087   1.157   2.577   7.401 -0.1387 -0.4910 -0.7502
22882SOL    HW270088   1.302   2.562   7.445  0.8191  2.0010 -2.8142
22883SOL     OW70089   7.537   5.674   8.500 -0.3005  0.3070  0.1425
22883SOL    HW170090   7.549   5.648   8.591  1.2204  1.3104  0.2499
22883SOL    HW270091   7.564   5.765   8.496  0.1712  0.1375 -1.4104
22884SOL     OW70092   0.426   6.494   4.768  0.1293 -0.5871 -0.2796
22884SOL    HW170093   0.430   6.526   4.858  0.6763  2.4184 -1.2336
22884SOL    HW270094   0.344   6.529   4.734  1.2917  0.8809 -1.7266
22885SOL     OW70095   2.064   4.028   7.099 -0.0208 -0.5297  0.1042
22885SOL    HW170096   2.099   3.967   7.035  1.5032 -0.0195  0.4209
22885SOL    HW270097   1.969   4.023   7.088  0.1839 -1.0338 -1.6425
22886SOL     OW70098   2.326   1.255   4.716 -0.2301  0.1239  0.1956
22886SOL    HW170099   2.404   1.222   4.761 -0.1464  1.2004  0.8854
22886SOL    HW270100   2.361   1.304   4.642 -0.3654 -1.5716 -1.0432
22887SOL     OW70101   3.310   5.754  10.751 -0.5330 -0.1009 -0.0272
22887SOL    HW170102   3.314   5.824  10.687 -1.0923 -1.2222 -1.3421
22887SOL    HW270103   3.367   5.685  10.715  1.6340  0.3694  2.2007
22888SOL     OW70104   1.917   1.653   0.769  0.4971 -0.4195  0.3080
22888SOL    HW170105   2.004   1.670   0.733  0.8337  1.7782  1.9064
22888SOL    HW270106   1.861   1.719   0.727 -0.7667 -2.5378 -1.5950
22889SOL     OW70107   1.778   0.234   6.452 -0.3552  0.2001  0.2173
22889SOL    HW170108   1.769   0.329   6.441  0.2124  0.0627 -2.0643
22889SOL    HW270109   1.857   0.212   6.402 -0.8022 -1.5407  0.2125
22890SOL     OW70110   0.008   4.653  10.600  0.5909 -0.2748  0.1835
22890SOL    HW170111  -0.017   4.671  10.509 -2.2401 -0.2417  0.8823
22890SOL    HW270112   0.028   4.560  10.601  1.2849 -0.1503 -0.5718
22891SOL     OW70113   6.269   4.188   2.796  0.6292 -0.0795  0.1186
22891SOL    HW170114   6.349   4.136   2.799  1.3401  0.8563 -1.4877
22891SOL    HW270115   6.201   4.131   2.833  1.2777 -2.3242 -1.9124
22892SOL     OW70116   6.152   2.290   0.314  0.2980  0.1786 -0.3741
22892SOL    HW170117   6.063   2.265   0.291 -0.0570  1.6325 -0.6981
22892SOL    HW270118   6.202   2.277   0.233 -0.3736  2.6019 -1.2916
22893SOL     OW70119   2.915   4.686   2.175 -0.2450  0.0938 -0.5301
22893SOL    HW170120   2.921   4.735   2.256 -0.3101 -0.1939 -0.3491
22893SOL    HW270121   2.866   4.742   2.115 -0.9126 -0.0362 -0.1094
22894SOL     OW70122   5.318   6.432   1.986 -0.1421 -0.2896 -0.6076
22894SOL    HW170123   5.391   6.418   1.926  1.1514  0.3261  0.7746
22894SOL    HW270124   5.264   6.498   1.943  0.3254 -0.4426 -1.4505
22895SOL     OW70125   1.082   4.998   8.113  0.3788 -0.2588 -0.3071
22895SOL    HW170126   1.119   5.085   8.117 -1.8989  0.7519  2.8097
22895SOL    HW270127   1.157   4.939   8.107  2.0745  1.8194 -0.2989
22896SOL     OW70128   1.502   2.695  10.328  0.5318 -0.7800 -0.1241
22896SOL    HW170129   1.540   2.781  10.308 -0.9354  0.1719  0.8998
22896SOL    HW270130   1.532   2.675  10.416 -0.4568 -0.4910  0.2985
22897SOL     OW70131   1.043   0.955   8.489 -0.7701 -0.0254 -0.0405
22897SOL    HW170132   0.965   0.944   8.435 -0.3646  1.5455 -1.0299
22897SOL    HW270133   1.098   0.880   8.466 -0.9310  0.2023 -1.2752
22898SOL     OW70134   7.607   7.467  10.033  0.3603 -0.0356 -0.4125
22898SOL    HW170135   7.556   7.538  10.072  0.9676  0.8674 -1.2204
22898SOL    HW270136   7.696   7.480  10.066  0.6446  0.0697 -1.1927
22899SOL     OW70137   6.498   7.015   5.386  0.0845 -0.0802 -0.3625
22899SOL    HW170138   6.498   6.981   5.297 -1.2778  2.6289 -1.5037
22899SOL    HW270139   6.419   6.977   5.426  0.5617 -1.0966 -0.3490
22900SOL     OW70140   5.546   4.848   4.666  0.5712 -0.0116 -0.0092
22900SOL    HW170141   5.468   4.850   4.611  2.2012  1.4545 -2.4320
22900SOL    HW270142   5.525   4.906   4.739 -1.7645 -2.2576  1.2797
22901SOL     OW70143   6.188   4.466  10.028 -0.5089  0.2003 -0.5787
22901SOL    HW170144   6.118   4.428  10.081  0.7974 -1.0847  0.2885
22901SOL    HW270145   6.245   4.510  10.091  1.0778 -1.3664 -0.8346
22902SOL     OW70146   7.852   1.916   8.915  0.5459 -0.0295  0.3927
22902SOL    HW170147   7.798   1.852   8.960 -0.4249  0.1380 -0.4879
22902SOL    HW270148   7.847   1.891   8.823 -0.2321  1.5573 -0.0287
22903SOL     OW70149   4.553   2.134   4.618 -0.2645  0.2595  0.0286
22903SOL    HW170150   4.471   2.110   4.662  0.1216 -0.7206  0.2496
22903SOL    HW270151   4.541   2.106   4.527 -0.8671  1.8180 -0.4019
22904SOL     OW70152   1.990   3.259   3.058  0.5063 -0.8863  0.1120
22904SOL    HW170153   1.905   3.242   3.098  0.2886 -0.4143 -0.1494
22904SOL    HW270154   1.985   3.219   2.972  0.6007 -0.9822  0.1505
22905SOL     OW70155   6.632   4.687   0.737 -0.0449 -0.3244 -0.0595
22905SOL    HW170156   6.609   4.642   0.656 -0.9065  0.5867 -0.3486
22905SOL    HW270157   6.578   4.767   0.736 -0.6521 -0.6613  1.7589
22906SOL     OW70158   5.557   7.708  11.167  0.4219 -0.4653  0.2667
22906SOL    HW170159   5.650   7.731  11.176  0.4437 -0.7643  0.8520
22906SOL    HW270160   5.554   7.614  11.183 -0.0703 -0.3351  1.0198
22907SOL     OW70161   6.450   7.854   5.952  0.1592 -0.2111  0.3904
22907SOL    HW170162   6.446   7.878   6.044 -0.0312  0.3639  0.2358
22907SOL    HW270163   6.358   7.852   5.924 -0.0242 -2.9860  0.8528
22908SOL     OW70164   2.053   3.783  11.543 -0.2974  0.6738 -0.1900
22908SOL    HW170165   1.997   3.737  11.606  1.6115 -1.6991 -0.0921
22908SOL    HW270166   2.100   3.847  11.595 -0.3282  0.2148  0.4159
22909SOL     OW70167   4.650   7.585   0.000  0.2419 -0.0342  0.2279
22909SOL    HW170168   4.598   7.644  -0.055  0.7804 -0.7509 -1.1059
22909SOL    HW270169   4.585   7.529   0.042 -0.1728  0.3798  0.1507
22910SOL     OW70170   7.405   7.621   4.333  0.0418  0.1178 -0.3062
22910SOL    HW170171   7.475   7.557   4.345  0.5316  1.0535  2.4026
22910SOL    HW270172   7.327   7.579   4.368  0.3016  0.8102  1.1902
22911SOL     OW70173   4.590   2.758   9.376  0.1848 -0.0802  0.1573
22911SOL    HW170174   4.576   2.827   9.310  0.5511 -0.6349 -0.5138
22911SOL    HW270175   4.599   2.678   9.325 -1.2766 -0.8064  0.9912
22912SOL     OW70176   5.896   7.073   3.090 -0.2033 -0.5425  0.4342
22912SOL    HW170177   5.833   7.144   3.094  1.0909  0.6924 -0.2660
22912SOL    HW270178   5.976   7.110   3.127  0.1552 -2.0510  1.2642
22913SOL     OW70179   5.924   3.240   0.425 -0.0013 -0.1682 -0.6019
22913SOL    HW170180   6.017   3.220   0.433 -0.0039 -0.4122 -1.1740
22913SOL    HW270181   5.921   3.319   0.371 -0.1884 -0.9869 -1.8182
22914SOL     OW70182   6.012   5.391   1.294 -0.4838 -0.7508  0.3914
22914SOL    HW170183   5.960   5.437   1.228 -1.1375 -1.2398  0.5653
22914SOL    HW270184   6.030   5.458   1.360 -0.8382 -0.5639  0.3023
22915SOL     OW70185   2.269   6.612   4.267 -0.4637  0.0659  0.0302
22915SOL    HW170186   2.225   6.650   4.191 -1.0397 -0.0168  0.3117
22915SOL    HW270187   2.361   6.630   4.254 -0.4654 -0.6529 -1.1029
22916SOL     OW70188   6.546   1.987   5.374  0.4359  0.1502  0.5894
22916SOL    HW170189   6.551   1.973   5.279  0.2778  0.2933  0.5603
22916SOL    HW270190   6.516   1.902   5.408 -1.5883  0.6865  0.3075
22917SOL     OW70191   6.422   3.775  11.022  0.1235 -0.0284  0.0422
22917SOL    HW170192   6.440   3.866  11.044 -0.9518  0.7597 -2.0925
22917SOL    HW270193   6.474   3.758  10.944 -0.1035 -1.0798  0.1051
22918SOL     OW70194   0.203   1.566   2.887  0.5324  0.3223  0.2761
22918SOL    HW170195   0.210   1.481   2.930  0.8412  0.3900  0.3667
22918SOL    HW270196   0.171   1.546   2.799 -1.5634  0.3243  0.9966
22919SOL     OW70197   3.777   0.317   0.457 -0.5021 -0.7831 -0.2198
22919SOL    HW170198   3.684   0.305   0.475 -0.7247  0.1089 -0.7099
22919SOL    HW270199   3.799   0.246   0.396 -0.9977 -0.6768 -0.5331
22920SOL     OW70200   5.498   0.976   6.126  0.2226  0.0334  0.3160
22920SOL    HW170201   5.431   0.913   6.152 -0.3546  0.7799  0.6766
22920SOL    HW270202   5.473   1.004   6.038  1.3271 -1.3491 -0.4805
22921SOL     OW70203   3.551   6.085   6.038 -0.3491  0.1606  0.2194
22921SOL    HW170204   3.487   6.051   5.976  0.3787 -0.5508 -0.1538
22921SOL    HW270205   3.633   6.085   5.989 -0.3336  2.6993  0.1048
22922SOL     OW70206   5.804   3.840   6.388 -0.4245  0.1438  0.5383
22922SOL    HW170207   5.896   3.865   6.404  0.0207 -2.0822  1.8538
22922SOL    HW270208   5.805   3.804   6.299  0.0920 -0.3239  0.7250
22923SOL     OW70209   6.521   0.001   3.367 -0.2502  0.6325 -0.2489
22923SOL    HW170210   6.558  -0.025   3.452  0.3139  0.2372 -0.6152
22923SOL    HW270211   6.431  -0.032   3.370  0.6128 -2.0451 -0.9718
22924SOL     OW70212   5.570   2.182   2.712 -0.8673  0.2378 -0.0147
22924SOL    HW170213   5.597   2.253   2.771 -1.5451  0.2282  0.3166
22924SOL    HW270214   5.476   2.195   2.700 -1.3848 -1.6672  1.5327
22925SOL     OW70215   0.641   6.914   9.410 -0.0880  0.2826  0.1891
22925SOL    HW170216   0.668   6.886   9.323  0.3728 -0.0509  0.4342
22925SOL    HW270217   0.717   6.960   9.445 -0.3481  0.6053  0.3313
22926SOL     OW70218   0.778   3.360   7.535  0.5840  0.2473  0.2794
22926SOL    HW170219   0.723   3.431   7.504  2.9463  2.1023  0.0412
22926SOL    HW270220   0.759   3.352   7.628 -0.6985  0.2224  0.0245
22927SOL     OW70221   0.678   0.216   3.038 -0.2008 -0.3269  0.1406
22927SOL    HW170222   0.677   0.131   3.082  0.9281 -0.8115 -0.7516
22927SOL    HW270223   0.765   0.252   3.057 -0.3225  0.2074 -0.2886
22928SOL     OW70224   2.449   2.815   6.598 -0.0180  0.0067 -0.4622
22928SOL    HW170225   2.489   2.776   6.520  1.1169 -0.1039  0.1511
22928SOL    HW270226   2.469   2.753   6.669  2.2294  1.8045  0.6280
22929SOL     OW70227   0.529   0.527   4.701 -0.0705  0.5693  0.1319
22929SOL    HW170228   0.594   0.588   4.668 -0.7418 -0.1608 -2.8561
22929SOL    HW270229   0.469   0.581   4.753  1.2825  1.7364  0.5520
22930SOL     OW70230   0.599   5.555   2.178 -0.4657  0.1962 -0.5656
22930SOL    HW170231   0.537   5.621   2.210 -1.0310 -0.8607  0.6223
22930SOL    HW270232   0.588   5.556   2.083  0.1892  2.4171 -0.6742
22931SOL     OW70233   4.975   4.193   4.542 -0.4385  0.0721  0.2063
22931SOL    HW170234   5.048   4.133   4.525 -0.3820  0.8995 -2.9797
22931SOL    HW270235   5.015   4.268   4.584  0.5024  0.2773 -1.0060
22932SOL     OW70236   1.449   2.569   8.322  0.2307 -0.0145  0.0562
22932SOL    HW170237   1.482   2.523   8.399 -0.3387  0.4918  0.6175
22932SOL    HW270238   1.527   2.601   8.277  0.6955 -2.1733 -0.7960
22933SOL     OW70239   3.529   6.633  10.023 -0.2107  0.0492  0.6624
22933SOL    HW170240   3.572   6.715  10.001  1.6225 -1.0216  0.0074
22933SOL    HW270241   3.473   6.614   9.947  1.4661 -0.6251 -0.4641
22934SOL     OW70242   2.931   0.434   2.072  0.2759 -0.0405 -0.3615
22934SOL    HW170243   2.841   0.406   2.089  0.1930  0.2787 -0.2604
22934SOL    HW270244   2.978   0.354   2.050  0.1312 -0.3141  0.3101
22935SOL     OW70245   7.707   5.777   0.502  0.5490 -0.3393 -0.0424
22935SOL    HW170246   7.734   5.865   0.530 -1.4264  0.4937 -0.5426
22935SOL    HW270247   7.729   5.774   0.409  2.3242 -1.1161  0.3756
22936SOL     OW70248   1.699   1.753   9.541 -0.1352 -0.1998 -0.1182
22936SOL    HW170249   1.728   1.687   9.478  0.8498  0.7156 -0.6608
22936SOL    HW270250   1.734   1.725   9.625  0.4269 -0.2967 -0.3785
22937SOL     OW70251   1.228   6.908   4.307 -0.5575 -0.4353 -0.4254
22937SOL    HW170252   1.206   7.000   4.320  1.0983  0.2987 -2.2792
22937SOL    HW270253   1.308   6.910   4.255 -0.6812 -2.9348 -0.8247
22938SOL     OW70254   5.465   6.399   2.389 -0.7518  0.0467  0.0071
22938SOL    HW170255   5.444   6.326   2.448 -0.5579 -0.4032 -0.4809
22938SOL    HW270256   5.484   6.358   2.305 -1.4833  0.7243 -0.5001
22939SOL     OW70257   2.615   0.365   1.858  0.1234  0.0768  0.0966
22939SOL    HW170258   2.592   0.311   1.934 -2.6535  1.8975  0.6592
22939SOL    HW270259   2.619   0.302   1.786  1.8606 -1.5492  1.4751
22940SOL     OW70260   3.770   3.150   5.958 -0.1114  0.2662 -0.2311
22940SOL    HW170261   3.727   3.077   5.913 -0.8708  0.6509 -0.1479
22940SOL    HW270262   3.717   3.227   5.935  1.1231  0.9384 -0.9729
22941SOL     OW70263   1.994   0.266   7.733 -0.2139  0.5433  0.4024
22941SOL    HW170264   2.066   0.206   7.756  0.1640 -0.3973 -2.7369
22941SOL    HW270265   2.038   0.346   7.706 -0.2560 -0.0528 -1.5747
22942SOL     OW70266   2.764   0.671   2.709  0.1008  0.1247 -0.5741
22942SOL    HW170267   2.756   0.589   2.756  0.1899  0.3447 -0.1704
22942SOL    HW270268   2.677   0.712   2.716  0.1018  0.1386 -0.6385
22943SOL     OW70269   0.951   1.693   6.954  0.1767  0.0032 -0.7538
22943SOL    HW170270   1.043   1.716   6.965  0.4798 -0.2656 -2.5078
22943SOL    HW270271   0.943   1.605   6.990  0.7816 -0.2824 -1.3213
22944SOL     OW70272   2.902   6.898  11.814 -0.1568 -0.0106 -0.1286
22944SOL    HW170273   2.985   6.922  11.857 -0.6758  3.1459 -0.6391
22944SOL    HW270274   2.842   6.879  11.886  0.2221  0.6716  0.3815
22945SOL     OW70275   6.521   0.072   0.086 -0.4834  0.4703 -0.0941
22945SOL    HW170276   6.577   0.136   0.129 -1.6356  1.2380  0.3080
22945SOL    HW270277   6.566   0.053   0.003  0.7054  0.5278  0.5122
22946SOL     OW70278   3.519   2.064   5.112  0.1165  0.1463 -0.3379
22946SOL    HW170279   3.483   2.145   5.076  0.1760  0.3517  0.0555
22946SOL    HW270280   3.604   2.089   5.149  0.0353 -0.0441 -0.0126
22947SOL     OW70281   0.200   6.929   8.985  0.3273  0.6465 -0.0565
22947SOL    HW170282   0.239   6.842   8.982  2.1804  1.4438 -0.0338
22947SOL    HW270283   0.268   6.985   9.021 -1.4318  1.8056  1.7034
22948SOL     OW70284   5.054   4.959   1.615 -0.2197  0.3850  0.5656
22948SOL    HW170285   5.030   4.916   1.533 -2.2957 -1.7483  2.1456
22948SOL    HW270286   5.009   5.044   1.612 -1.1878 -0.1318 -0.0474
22949SOL     OW70287   3.268   5.548   4.817  0.3274  0.0135 -0.2955
22949SOL    HW170288   3.280   5.546   4.722  0.4404  0.3782 -0.2908
22949SOL    HW270289   3.357   5.551   4.853  0.2792  0.1350 -0.1851
22950SOL     OW70290   1.315   4.404   2.320 -0.1004  0.0309  0.0217
22950SOL    HW170291   1.226   4.434   2.301 -0.0341 -0.1435 -0.6085
22950SOL    HW270292   1.357   4.480   2.361 -0.3909  0.2896 -0.1492
22951SOL     OW70293   4.032   1.543  11.724 -0.3959 -0.2177 -0.0654
22951SOL    HW170294   4.079   1.500  11.652 -1.5541 -1.2187 -0.2688
22951SOL    HW270295   4.059   1.634  11.719  0.8371 -0.5904 -0.7076
22952SOL     OW70296   7.842   0.240   6.194  0.6465  0.1972 -0.1265
22952SOL    HW170297   7.806   0.312   6.246  0.4151  0.2013 -0.2936
22952SOL    HW270298   7.868   0.175   6.259 -1.8997 -0.8832 -0.0502
22953SOL     OW70299   3.280   7.290   8.054 -0.3487 -0.0178 -0.4133
22953SOL    HW170300   3.345   7.361   8.047 -1.7849  1.5390  1.0658
22953SOL    HW270301   3.213   7.313   7.990 -1.6533  0.9959  1.2113
22954SOL     OW70302   2.433   4.426   3.309  0.3961  0.1624  0.4419
22954SOL    HW170303   2.374   4.456   3.239 -0.4264  2.5938  2.0375
22954SOL    HW270304   2.380   4.432   3.388  1.5555 -1.7272  1.4321
22955SOL     OW70305   0.206   0.355   3.722  0.7104 -0.2324 -0.2378
22955SOL    HW170306   0.300   0.358   3.739  0.7037 -3.2382  0.8907
22955SOL    HW270307   0.176   0.275   3.765 -2.1517 -0.0830 -1.7101
22956SOL     OW70308   1.839   0.305   1.858  0.1687 -0.1214 -0.4035
22956SOL    HW170309   1.803   0.262   1.935 -1.6486 -0.3501 -1.3325
22956SOL    HW270310   1.820   0.398   1.871 -1.4800 -0.3096 -1.2018
22957SOL     OW70311   5.157   1.541   9.643  0.0136 -0.4008 -0.1549
22957SOL    HW170312   5.159   1.578   9.555 -0.7296  0.7070  0.2691
22957SOL    HW270313   5.245   1.556   9.678 -0.0672  0.3182 -0.2540
22958SOL     OW70314   4.874   2.928   6.841  0.2397 -0.3656 -0.1127
22958SOL    HW170315   4.825   2.901   6.764 -0.1878  0.6118 -0.2071
22958SOL    HW270316   4.963   2.940   6.810  0.1207 -0.2201 -0.4003
22959SOL     OW70317   0.187   4.772   8.753  0.3614  0.2817 -0.0359
22959SOL    HW170318   0.126   4.704   8.781  0.1979 -0.7687 -2.6946
22959SOL    HW270319   0.167   4.787   8.661  2.7527  1.3730 -0.4622
22960SOL     OW70320   6.841   6.787   4.446 -0.6235  0.0647  0.1536
22960SOL    HW170321   6.892   6.792   4.527  2.2049  0.0927 -1.4946
22960SOL    HW270322   6.898   6.740   4.385 -1.7609  1.8517 -2.4573
22961SOL     OW70323   1.272   7.837   4.423  0.0489 -0.3149 -0.3972
22961SOL    HW170324   1.291   7.758   4.372 -0.8275 -0.3183 -0.7263
22961SOL    HW270325   1.347   7.894   4.408 -0.0317 -0.4621 -1.4156
22962SOL     OW70326   2.924   3.461   8.485  0.5005 -0.6883  0.2803
22962SOL    HW170327   2.996   3.523   8.471 -0.2884 -0.0994 -1.3964
22962SOL    HW270328   2.966   3.375   8.481  1.2175 -0.3392  0.0253
22963SOL     OW70329   5.739   4.449   6.353 -0.1376 -0.3013 -0.4431
22963SOL    HW170330   5.677   4.478   6.285 -0.3615  0.0816 -0.0791
22963SOL    HW270331   5.825   4.462   6.314 -0.2650 -0.0665 -0.6463
22964SOL     OW70332   7.204   4.296  10.078  0.0572 -0.1966 -0.5529
22964SOL    HW170333   7.181   4.203  10.087  3.2503 -0.9151  2.0954
22964SOL    HW270334   7.220   4.326  10.167  1.4534  2.2417 -1.5210
22965SOL     OW70335   5.623   5.946  11.522 -0.6421  0.1131  0.1227
22965SOL    HW170336   5.536   5.964  11.557 -0.6695 -2.2869  1.4618
22965SOL    HW270337   5.681   5.954  11.598 -0.3280 -2.5057  0.2442
22966SOL     OW70338   1.727   5.316   8.543  0.2544 -0.3934 -0.5165
22966SOL    HW170339   1.752   5.369   8.618 -0.2405  0.0927 -0.6829
22966SOL    HW270340   1.792   5.338   8.476 -0.4675  0.7430 -0.8947
22967SOL     OW70341   1.485   1.626   5.917  0.1075 -0.1685 -0.0489
22967SOL    HW170342   1.503   1.678   5.839  0.0382  1.0746  0.7285
22967SOL    HW270343   1.558   1.566   5.925 -0.1399 -0.6600 -1.3448
22968SOL     OW70344   5.497   5.797   5.247  0.0826  0.1817  0.1497
22968SOL    HW170345   5.431   5.782   5.179  1.6602  0.2324 -1.4485
22968SOL    HW270346   5.532   5.884   5.228  1.4159 -0.3102  0.2308
22969SOL     OW70347   2.900   6.420   5.460  0.4030  0.3944 -0.0859
22969SOL    HW170348   2.924   6.456   5.546  0.5963  1.7576 -0.6864
22969SOL    HW270349   2.817   6.461   5.439  0.3521  0.0598 -0.5497
22970SOL     OW70350   2.350   1.170   7.546  0.5301 -0.0401 -0.0090
22970SOL    HW170351   2.398   1.120   7.479  0.0940 -3.1362  1.7749
22970SOL    HW270352   2.417   1.193   7.610  0.2639 -1.3315  0.7783
22971SOL     OW70353   7.915   2.890  10.949  0.0280 -0.1466 -0.5458
22971SOL    HW170354   7.954   2.966  10.991  1.8472 -2.9090  3.4379
22971SOL    HW270355   7.984   2.856  10.892  1.4588 -1.6256  1.8582
22972SOL     OW70356   0.876   0.208  11.007 -0.4559  0.2065  0.3855
22972SOL    HW170357   0.881   0.262  10.929  0.1672  0.6265  0.7113
22972SOL    HW270358   0.793   0.159  10.997  0.1076 -0.5264 -1.0267
22973SOL     OW70359   6.318   4.926   7.786  0.2358 -0.0532  0.3055
22973SOL    HW170360   6.308   5.013   7.824 -0.6961 -0.2340  0.4929
22973SOL    HW270361   6.368   4.877   7.852  2.5110  0.8602 -0.6468
22974SOL     OW70362   2.919   2.471   7.865 -0.1651 -0.2559 -0.1013
22974SOL    HW170363   2.873   2.395   7.899 -0.3422 -0.9210 -1.7309
22974SOL    HW270364   2.973   2.501   7.938 -1.4264 -0.8479  1.1189
22975SOL     OW70365   4.401   1.944   0.698 -0.1935  0.0608 -0.0771
22975SOL    HW170366   4.363   2.002   0.633  1.1085  2.4606  1.1605
22975SOL    HW270367   4.492   1.974   0.707  0.0049 -0.9504  1.9606
22976SOL     OW70368   4.121   2.497   6.924 -0.3761 -0.7326 -0.2276
22976SOL    HW170369   4.133   2.427   6.859  1.4752  0.4286 -1.2025
22976SOL    HW270370   4.107   2.450   7.007 -0.2553 -2.2433 -1.0230
22977SOL     OW70371   4.332   7.074   1.348  0.0125  0.1815  0.1744
22977SOL    HW170372   4.411   7.051   1.398  0.3822  0.7735 -0.1187
22977SOL    HW270373   4.259   7.044   1.402  0.2485  3.3574  2.5458
22978SOL     OW70374   1.504   3.471   4.821 -0.0512  0.1145  0.0747
22978SOL    HW170375   1.443   3.421   4.874 -1.8830  0.4549 -1.6240
22978SOL    HW270376   1.575   3.410   4.801 -1.1881 -1.1618 -0.1912
22979SOL     OW70377   1.309   5.371  10.897  0.0290  0.0094  0.0681
22979SOL    HW170378   1.263   5.428  10.959  0.0080 -0.8480  0.8580
22979SOL    HW270379   1.369   5.320  10.951  1.7675  0.9258 -0.9106
22980SOL     OW70380   7.958   4.912   5.770 -0.1164  0.1124  0.2076
22980SOL    HW170381   7.957   4.986   5.830  1.1503  0.5901 -0.3229
22980SOL    HW270382   8.051   4.897   5.752 -0.4318 -0.4500 -1.0934
22981SOL     OW70383   7.109   3.906  10.646  0.1434 -0.4959  0.0698
22981SOL    HW170384   7.168   3.879  10.716 -1.2928  1.4301  2.1713
22981SOL    HW270385   7.040   3.839  10.645 -0.4574  0.0506  1.4022
22982SOL     OW70386   5.359   3.956   7.871  0.2945 -0.0592 -0.3174
22982SOL    HW170387   5.338   3.928   7.782 -0.1335 -0.9112  0.0321
22982SOL    HW270388   5.449   3.926   7.884  1.3521  2.3868 -1.3410
22983SOL     OW70389   7.083   7.895   6.392  0.0906 -0.2935  0.4615
22983SOL    HW170390   7.162   7.886   6.339  0.3492  1.8829  0.4097
22983SOL    HW270391   7.017   7.843   6.346  0.7109  0.2673 -1.1254
22984SOL     OW70392   1.139   7.706   2.079 -0.1381  0.0409 -0.3622
22984SOL    HW170393   1.163   7.659   2.159  0.9942  0.4344 -0.4456
22984SOL    HW270394   1.107   7.791   2.110  1.7026  0.7753 -0.3435
22985SOL     OW70395   5.529   6.513   5.195 -0.4227 -0.4951 -0.5902
22985SOL    HW170396   5.456   6.469   5.238 -0.7907 -0.1814 -0.8880
22985SOL    HW270397   5.603   6.454   5.208 -0.2818  0.0095  1.3083
22986SOL     OW70398   1.133   0.001   1.315 -0.6461 -0.0564 -0.2648
22986SOL    HW170399   1.121   0.092   1.288  1.3255  0.4060  0.2950
22986SOL    HW270400   1.224  -0.005   1.343 -0.3174 -2.5348 -1.5257
22987SOL     OW70401   5.165   6.774   3.831 -0.2164 -0.1322  0.5760
22987SOL    HW170402   5.235   6.809   3.887  0.8537  0.3911 -1.0171
22987SOL    HW270403   5.210   6.716   3.770 -1.2914 -0.3811 -0.0014
22988SOL     OW70404   5.592   2.777   9.945  0.2109  0.5208 -0.5673
22988SOL    HW170405   5.657   2.786  10.014 -0.8761  0.8719  0.4356
22988SOL    HW270406   5.532   2.710   9.977 -0.8697  1.4000 -0.7002
22989SOL     OW70407   6.411   5.854   6.274 -0.3964  1.3753  0.4813
22989SOL    HW170408   6.380   5.943   6.255  1.2395  2.2697  1.6827
22989SOL    HW270409   6.487   5.868   6.331  0.4614 -0.7819 -0.0684
22990SOL     OW70410   2.707   6.497   4.988 -0.5014 -0.5591  0.0899
22990SOL    HW170411   2.648   6.532   5.053  0.6304 -1.2391  1.5391
22990SOL    HW270412   2.695   6.402   4.993  0.1334 -0.6572 -0.1499
22991SOL     OW70413   4.217   2.283   5.816 -0.0045  0.4297 -0.1572
22991SOL    HW170414   4.220   2.273   5.721 -1.2422  0.3108 -0.1956
22991SOL    HW270415   4.303   2.319   5.839  1.3324 -1.9875 -1.0039
22992SOL     OW70416   5.191   5.637   6.478  0.3615 -0.2955  0.0049
22992SOL    HW170417   5.231   5.716   6.515 -0.5828 -0.3785  1.2744
22992SOL    HW270418   5.179   5.578   6.553 -1.1679 -0.6728 -0.4891
22993SOL     OW70419   1.529   7.937   5.582 -0.2398  0.3836  0.0023
22993SOL    HW170420   1.618   7.974   5.584 -0.3740  0.7252 -0.2113
22993SOL    HW270421   1.483   7.981   5.653 -0.7616  1.5834 -1.0298
22994SOL     OW70422   3.388   3.800   9.501  0.2233  0.1646 -0.0455
22994SOL    HW170423   3.410   3.707   9.494 -1.3089 -0.1449 -1.1624
22994SOL    HW270424   3.473   3.843   9.512  1.0570 -1.2755 -0.4546
22995SOL     OW70425   7.440   6.818  10.491  0.1159  0.1020  0.0140
22995SOL    HW170426   7.424   6.724  10.489  0.2188  0.0364 -3.5078
22995SOL    HW270427   7.515   6.828  10.551  0.1109 -2.0164  0.4437
22996SOL     OW70428   0.193   0.784   7.170 -0.7339  0.0406 -0.1476
22996SOL    HW170429   0.274   0.835   7.168  0.3922 -1.6458  0.1479
22996SOL    HW270430   0.149   0.811   7.250 -0.4674  0.9707 -0.3043
22997SOL     OW70431   6.049   6.724  11.022  0.0459 -0.6765 -0.5711
22997SOL    HW170432   6.016   6.782  10.953 -1.5159 -1.7027 -0.7593
22997SOL    HW270433   6.084   6.648  10.975  0.8821 -0.4696 -0.2922
22998SOL     OW70434   6.657   0.834   6.450  0.0624 -0.2138  0.4561
22998SOL    HW170435   6.694   0.855   6.535  0.8450  0.0517  0.0645
22998SOL    HW270436   6.690   0.902   6.392 -0.8847 -0.0932  0.0407
22999SOL     OW70437   5.482   6.229   1.249 -0.6564 -0.0017  0.0036
22999SOL    HW170438   5.416   6.295   1.270  0.8155  0.7253  3.1013
22999SOL    HW270439   5.523   6.260   1.168 -1.4315  1.7636  0.2368
23000SOL     OW70440   4.117   4.554  12.417 -0.4221  0.1443 -0.1990
23000SOL    HW170441   4.061   4.555  12.494 -0.4157 -0.7493 -0.1731
23000SOL    HW270442   4.105   4.466  12.380  1.3922 -0.2828  0.1314
23001SOL     OW70443   0.907   3.589   7.078 -0.7342 -0.1094  0.4852
23001SOL    HW170444   0.964   3.628   7.144  1.1970 -1.0493 -0.5500
23001SOL    HW270445   0.818   3.607   7.109  0.0822 -0.4731  3.2937
23002SOL     OW70446   5.532   4.957   6.665  0.4039  0.3542  0.0060
23002SOL    HW170447   5.448   4.982   6.705 -0.3147 -0.3695 -0.9842
23002SOL    HW270448   5.530   4.998   6.578  0.6110 -0.4897 -0.4084
23003SOL     OW70449   2.774   5.330  11.326  0.5584 -0.6970  0.5859
23003SOL    HW170450   2.710   5.341  11.257  0.8957  0.2178  0.3984
23003SOL    HW270451   2.779   5.236  11.341 -0.2111 -0.8294  0.0317
23004SOL     OW70452   0.838   6.426   4.337  0.0035  0.0114  0.1627
23004SOL    HW170453   0.841   6.490   4.266  0.2498  0.7873  0.8489
23004SOL    HW270454   0.861   6.343   4.296  1.0021  0.5921 -0.5057
23005SOL     OW70455   5.135   1.334  12.293 -0.0917 -0.1480 -0.3508
23005SOL    HW170456   5.047   1.328  12.257  0.6311 -1.5862 -2.0628
23005SOL    HW270457   5.180   1.396  12.236  0.4641 -0.7597 -0.5990
23006SOL     OW70458   1.752   0.584   8.839 -0.2294 -0.0208  0.0722
23006SOL    HW170459   1.796   0.589   8.754 -0.4205  0.0126 -0.0236
23006SOL    HW270460   1.691   0.510   8.831  0.3692 -0.5732  0.4664
23007SOL     OW70461   2.496   6.751   6.470 -0.2115  0.0120  0.0336
23007SOL    HW170462   2.452   6.834   6.452 -1.3481 -0.7121 -0.6502
23007SOL    HW270463   2.579   6.776   6.512  0.9107  1.6461 -2.9124
23008SOL     OW70464   3.683   6.638   8.464 -0.1015 -0.1337 -0.9009
23008SOL    HW170465   3.739   6.674   8.394 -2.3886  1.6477 -1.9396
23008SOL    HW270466   3.595   6.642   8.428 -1.2095 -0.5223  1.5930
23009SOL     OW70467   1.162   0.235  11.567  0.1738  0.3882 -0.4486
23009SOL    HW170468   1.252   0.201  11.574 -0.5397 -1.6588 -0.3984
23009SOL    HW270469   1.107   0.156  11.570 -1.6569  1.6259 -0.0024
23010SOL     OW70470   7.115   5.022   0.690 -0.1687 -0.5876 -0.5873
23010SOL    HW170471   7.029   5.003   0.726 -0.9114 -0.2243 -2.0657
23010SOL    HW270472   7.167   5.050   0.765 -1.7369  0.5346  0.1352
23011SOL     OW70473   4.995   3.131   7.994 -0.3194 -0.3993  0.0063
23011SOL    HW170474   4.911   3.095   8.021 -0.1940 -1.1994 -0.6286
23011SOL    HW270475   5.040   3.058   7.951 -0.5629  0.7708 -2.4144
23012SOL     OW70476   3.832   0.701   0.530 -0.4788 -0.2242 -0.0940
23012SOL    HW170477   3.754   0.738   0.489 -1.5222  0.0573  2.0367
23012SOL    HW270478   3.903   0.761   0.507 -0.7824 -0.5872 -2.2229
23013SOL     OW70479   1.139   6.696   2.054  0.0165  0.4488 -0.2414
23013SOL    HW170480   1.112   6.738   2.136  0.8043  1.2029 -0.3466
23013SOL    HW270481   1.119   6.761   1.987  0.6164  0.3859 -0.4900
23014SOL     OW70482   7.387   5.294   6.220  0.1332  0.0790  0.0647
23014SOL    HW170483   7.370   5.361   6.154 -0.5049  1.1633  1.2718
23014SOL    HW270484   7.457   5.331   6.274  0.1629 -0.4703  0.4039
23015SOL     OW70485   3.438   2.840   7.269 -0.2916 -0.1336  0.1587
23015SOL    HW170486   3.413   2.859   7.359 -1.8538 -0.8704 -0.0896
23015SOL    HW270487   3.432   2.924   7.223  0.6543  0.2729  0.7428
23016SOL     OW70488   6.359   0.369   9.345  0.3862 -0.2135  0.1108
23016SOL    HW170489   6.349   0.459   9.376  0.4280 -0.3118  0.4103
23016SOL    HW270490   6.327   0.315   9.417  0.6374 -0.4489  0.0479
23017SOL     OW70491   6.118   5.182   3.920  0.7051 -0.1196 -0.1937
23017SOL    HW170492   6.183   5.189   3.850  2.1019 -2.5511  0.7116
23017SOL    HW270493   6.138   5.098   3.962  0.0175  1.2395  3.1602
23018SOL     OW70494   7.643   7.845   5.310 -0.0364 -0.0430 -0.1428
23018SOL    HW170495   7.602   7.928   5.333  1.0833 -0.0142  2.0281
23018SOL    HW270496   7.735   7.857   5.332 -0.0673 -2.2716  1.6264
23019SOL     OW70497   0.553   0.074  12.281  0.1339 -0.1030  0.0831
23019SOL    HW170498   0.538   0.143  12.216  1.7880 -0.1281 -0.3582
23019SOL    HW270499   0.617   0.112  12.342  1.0239 -1.2176 -0.1396
23020SOL     OW70500   2.454   2.470   8.073 -0.3761 -0.6224 -0.2285
23020SOL    HW170501   2.486   2.525   8.144 -1.9535  2.0568 -1.4430
23020SOL    HW270502   2.364   2.450   8.098 -0.4284 -1.0177 -0.7274
23021SOL     OW70503   2.729   2.445   6.422 -0.4253  0.1811  0.2612
23021SOL    HW170504   2.719   2.349   6.423  0.0869  0.1273  1.0535
23021SOL    HW270505   2.770   2.466   6.506  0.9060  0.9249 -0.5253
23022SOL     OW70506   7.328   0.121   5.885  0.0099 -0.2455 -0.4910
23022SOL    HW170507   7.359   0.175   5.957 -1.4944  0.2593 -0.1721
23022SOL    HW270508   7.318   0.183   5.812 -2.4229  0.1486  0.0799
23023SOL     OW70509   7.318   4.894   3.526 -0.3669  0.1601  0.3039
23023SOL    HW170510   7.357   4.916   3.442 -0.4239 -1.9865 -0.3476
23023SOL    HW270511   7.343   4.966   3.584 -0.0583  1.5173 -1.4474
23024SOL     OW70512   6.776   1.757  12.443  0.3545  0.1738  0.6471
23024SOL    HW170513   6.776   1.808  12.524  2.7865  1.3959  0.0028
23024SOL    HW270514   6.857   1.705  12.448 -0.8107 -1.7753  0.1466
23025SOL     OW70515   7.053   6.113  10.282  0.5566  0.3722 -0.2142
23025SOL    HW170516   7.064   6.116  10.377  0.7447  2.9806 -0.2538
23025SOL    HW270517   7.101   6.034  10.255  1.9701  0.5194  1.6649
23026SOL     OW70518   4.602   6.460   5.055  0.3082 -0.4765  0.0812
23026SOL    HW170519   4.533   6.445   4.990  0.3259  0.7103 -0.2325
23026SOL    HW270520   4.626   6.552   5.044  0.4427 -0.2954  1.6476
23027SOL     OW70521   6.914   4.994   6.651  0.6600 -0.5611 -0.0940
23027SOL    HW170522   6.952   4.910   6.628  1.7507 -0.2393  0.4864
23027SOL    HW270523   6.966   5.058   6.603 -0.3362 -0.2142 -0.7526
23028SOL     OW70524   7.240   1.139   3.756  0.6933  0.2254  0.2768
23028SOL    HW170525   7.326   1.150   3.714  0.2301  0.1674 -0.7122
23028SOL    HW270526   7.249   1.060   3.808  0.7811 -0.6854 -1.0691
23029SOL     OW70527   7.921   2.316  12.081  0.0532 -0.6307 -0.3944
23029SOL    HW170528   7.835   2.282  12.056 -0.2010  0.5807 -1.2150
23029SOL    HW270529   7.969   2.324  11.999 -0.0534  1.3860 -0.3169
23030SOL     OW70530   3.047   4.992   2.340  0.0354  0.1577  0.2700
23030SOL    HW170531   3.040   4.993   2.244 -1.4350  0.1246  0.3564
23030SOL    HW270532   3.035   5.083   2.366  1.1603  0.2841  0.4021
23031SOL     OW70533   5.199   1.731   6.346 -0.1206  0.2613  0.0201
23031SOL    HW170534   5.289   1.762   6.355 -0.0009  0.0743 -0.5391
23031SOL    HW270535   5.146   1.811   6.341  0.1746  0.3930 -1.3182
23032SOL     OW70536   3.060   0.166   1.959  0.3292 -0.0609 -0.4650
23032SOL    HW170537   3.047   0.184   1.866 -2.1464 -1.0143 -0.3640
23032SOL    HW270538   2.988   0.108   1.983 -0.0311  1.3927  2.4079
23033SOL     OW70539   3.453   6.782   9.680 -0.2574 -0.6688 -0.4571
23033SOL    HW170540   3.415   6.704   9.719  0.6493 -0.7012  0.3993
23033SOL    HW270541   3.412   6.788   9.593 -0.7375 -1.7835 -0.3210
23034SOL     OW70542   1.440   4.469   0.062  0.0859  0.1354  0.1797
23034SOL    HW170543   1.374   4.519   0.014  1.7861  0.8860 -1.4730
23034SOL    HW270544   1.395   4.387   0.085 -1.4789  0.7060 -0.6975
23035SOL     OW70545   7.677   3.846   8.772 -0.3123 -0.0539  0.0513
23035SOL    HW170546   7.632   3.898   8.706  0.8609  1.1980  0.1778
23035SOL    HW270547   7.632   3.868   8.854 -0.0593  0.4971  0.0488
23036SOL     OW70548   0.077   4.579   7.412 -0.5496  0.3352 -0.4624
23036SOL    HW170549   0.109   4.513   7.474 -0.6550 -0.8625 -1.6466
23036SOL    HW270550   0.039   4.647   7.468 -0.2232 -0.4880  0.8059
23037SOL     OW70551   3.151   0.782   4.368 -0.3426  0.0059 -0.0566
23037SOL    HW170552   3.159   0.686   4.367 -1.1201 -0.0654 -0.0615
23037SOL    HW270553   3.123   0.803   4.457 -4.4384 -0.1883 -1.0948
23038SOL     OW70554   5.191   5.949   9.354  0.1385  0.0068  0.0232
23038SOL    HW170555   5.215   6.034   9.316 -0.5569  0.1834 -0.0296
23038SOL    HW270556   5.213   5.885   9.286 -1.9673  0.3934 -1.0987
23039SOL     OW70557   0.158   6.048   3.723 -0.3150  0.2559  0.3283
23039SOL    HW170558   0.196   6.093   3.647 -0.8189  0.4644  0.1954
23039SOL    HW270559   0.066   6.033   3.699 -1.1503  2.4942  1.8391
23040SOL     OW70560   4.608   6.265   0.356 -0.3785  0.7493  0.3422
23040SOL    HW170561   4.548   6.291   0.426  0.4341  0.9152  0.9942
23040SOL    HW270562   4.553   6.218   0.293 -1.3527  1.6686  0.4834
23041SOL     OW70563   2.425   3.664   7.116 -0.5436  0.1746 -0.0108
23041SOL    HW170564   2.417   3.750   7.157 -0.6243 -0.0111  0.3742
23041SOL    HW270565   2.382   3.673   7.032 -1.4697  0.2308  0.4615
23042SOL     OW70566   0.988   0.964  11.947  0.4964 -0.2534  0.4016
23042SOL    HW170567   1.064   0.981  11.892  1.1861  0.1470  1.4647
23042SOL    HW270568   0.971   1.046  11.992 -0.3390 -0.4521  0.4760
23043SOL     OW70569   2.392   7.601   6.477  0.4876  0.0837 -0.8579
23043SOL    HW170570   2.371   7.510   6.453  0.4574 -0.4895  1.1406
23043SOL    HW270571   2.413   7.644   6.394 -0.1164 -1.5851 -1.9218
23044SOL     OW70572   3.823   1.947   6.418  0.1259 -0.2740 -0.1715
23044SOL    HW170573   3.852   1.935   6.327 -0.4419 -1.3377 -0.2290
23044SOL    HW270574   3.848   1.866   6.462  0.9939  0.4924  0.8057
23045SOL     OW70575   5.569   1.399  12.172 -0.2127 -0.0638  0.2170
23045SOL    HW170576   5.592   1.421  12.081  0.2805 -0.7756  0.1580
23045SOL    HW270577   5.653   1.395  12.217 -0.2613 -1.6204  0.2516
23046SOL     OW70578   1.974   1.664  11.612 -0.2336 -0.3484 -0.4543
23046SOL    HW170579   2.055   1.695  11.572  0.0516 -0.9035 -0.3128
23046SOL    HW270580   2.000   1.629  11.697 -0.3834 -1.8037 -0.9627
23047SOL     OW70581   6.838   4.506   2.361 -0.6516  0.2214  0.6012
23047SOL    HW170582   6.906   4.522   2.426  0.9213 -1.1749 -0.6292
23047SOL    HW270583   6.805   4.418   2.383  2.3151 -1.8778 -2.3529
23048SOL     OW70584   7.553   1.896   0.351  0.2574  0.1747  0.2790
23048SOL    HW170585   7.520   1.965   0.409 -1.4387  0.5623 -1.0573
23048SOL    HW270586   7.521   1.815   0.390 -0.4502  0.3918  0.1657
23049SOL     OW70587   1.196   4.133   9.123 -0.3370 -0.1233  0.1734
23049SOL    HW170588   1.263   4.149   9.189  0.3333  1.3242 -0.7903
23049SOL    HW270589   1.116   4.118   9.173  0.1702  0.8451  1.3280
23050SOL     OW70590   5.428   1.952   0.009 -0.1525 -0.2789  0.8391
23050SOL    HW170591   5.384   1.892  -0.051 -1.1688  0.3643  0.8980
23050SOL    HW270592   5.430   1.905   0.093  0.0959 -0.6777  0.6077
23051SOL     OW70593   7.103   0.097   0.944 -0.2438  0.1479 -0.6194
23051SOL    HW170594   7.049   0.176   0.949 -0.6508 -0.1917  0.4399
23051SOL    HW270595   7.191   0.128   0.966 -0.8019 -0.0706  2.2855
23052SOL     OW70596   0.465   6.099   6.259  0.6101  0.2259  0.2704
23052SOL    HW170597   0.555   6.129   6.269  0.9468 -0.9939  1.0080
23052SOL    HW270598   0.419   6.135   6.336  1.0879 -1.3213  1.3344
23053SOL     OW70599   3.388   7.342   7.297  0.1690  0.1003 -0.2670
23053SOL    HW170600   3.466   7.386   7.262 -0.4200  2.4201  1.1020
23053SOL    HW270601   3.403   7.337   7.391 -0.2215 -1.8971 -0.2678
23054SOL     OW70602   7.063   4.330   7.915  0.2587 -0.1999 -0.0218
23054SOL    HW170603   7.093   4.243   7.888  0.3510 -0.3313  0.4878
23054SOL    HW270604   7.114   4.391   7.862 -0.6562 -0.4674 -1.2512
23055SOL     OW70605   6.377   6.153   2.684 -0.2001 -0.1051  0.4716
23055SOL    HW170606   6.330   6.078   2.719 -0.7561  0.3300  0.6640
23055SOL    HW270607   6.349   6.227   2.738 -0.4647  0.4334 -0.3787
23056SOL     OW70608   6.508   2.545  11.857  0.2484 -0.0384 -0.2120
23056SOL    HW170609   6.468   2.627  11.887  0.8747 -0.4128  1.8099
23056SOL    HW270610   6.601   2.556  11.877  0.8145 -0.1948 -2.4810
23057SOL     OW70611   3.557   1.114   1.018  0.0621  0.3447  0.4868
23057SOL    HW170612   3.620   1.186   1.024  0.1051  0.4115 -0.6240
23057SOL    HW270613   3.498   1.140   0.948 -0.1825 -0.5058  0.3656
23058SOL     OW70614   4.719   6.457   6.878 -0.4091 -0.5401  1.0680
23058SOL    HW170615   4.801   6.468   6.926 -0.0398  1.1196  0.1553
23058SOL    HW270616   4.721   6.367   6.847  0.4066 -0.9345  2.2146
23059SOL     OW70617   6.226   3.309   5.814 -0.2578  0.0797 -0.0072
23059SOL    HW170618   6.204   3.354   5.733  2.2873 -1.7250 -1.8525
23059SOL    HW270619   6.145   3.262   5.837 -1.7497  2.4385 -0.1050
23060SOL     OW70620   6.596   5.581  11.791 -0.7382  0.0983  0.7177
23060SOL    HW170621   6.544   5.503  11.813 -0.8327 -0.2892 -0.7532
23060SOL    HW270622   6.679   5.568  11.838  0.5183 -2.5527 -1.8803
23061SOL     OW70623   1.424   2.214  11.268  0.0267 -0.7624 -0.3736
23061SOL    HW170624   1.509   2.240  11.232  1.3279 -1.5491  1.9660
23061SOL    HW270625   1.430   2.119  11.278 -0.9264 -0.7572  0.3390
23062SOL     OW70626   7.939   6.748   4.408 -1.0618  0.1908 -0.1522
23062SOL    HW170627   8.013   6.806   4.426 -0.0784 -0.8320 -0.7698
23062SOL    HW270628   7.873   6.805   4.369  0.2554  0.7645 -1.6468
23063SOL     OW70629   1.007   2.190   8.580  0.3763 -0.1243 -0.6545
23063SOL    HW170630   1.022   2.112   8.635 -0.1124 -1.4720 -2.3564
23063SOL    HW270631   1.094   2.228   8.568  0.4585  0.4215  1.3059
23064SOL     OW70632   7.164   7.096   2.932 -0.4012  0.0946  0.5796
23064SOL    HW170633   7.148   7.180   2.888 -1.0286 -0.7319 -0.8311
23064SOL    HW270634   7.189   7.036   2.861  0.2609 -0.8635  1.5960
23065SOL     OW70635   6.017   1.963   6.159 -0.0292  0.4159  0.4498
23065SOL    HW170636   5.994   1.873   6.136 -0.2114  0.6591 -0.3552
23065SOL    HW270637   6.009   1.966   6.254  2.0360 -0.9672  0.7154
23066SOL     OW70638   5.448   7.935   4.881  0.9481 -0.2232  0.4215
23066SOL    HW170639   5.539   7.918   4.906  0.7617 -0.8361  0.7109
23066SOL    HW270640   5.399   7.926   4.963  0.5808 -0.2532  0.1998
23067SOL     OW70641   6.311   5.908   3.528 -0.4171  0.0408  0.2350
23067SOL    HW170642   6.239   5.846   3.519  0.9629 -1.4907 -0.9295
23067SOL    HW270643   6.368   5.869   3.595 -1.0488  1.7029  1.8449
23068SOL     OW70644   4.286   3.075   3.002  0.0695  0.5523  0.3955
23068SOL    HW170645   4.258   2.987   2.977 -0.6690  0.5780  1.0885
23068SOL    HW270646   4.204   3.119   3.027  0.5145  1.2291  0.6776
23069SOL     OW70647   0.627   6.619   7.966  0.6680 -0.4670 -0.3427
23069SOL    HW170648   0.541   6.661   7.962  0.2364 -1.3670 -0.6629
23069SOL    HW270649   0.631   6.582   8.054  0.6739 -0.5418 -0.3748
23070SOL     OW70650   1.163   7.868   9.308 -0.3375  0.4466  0.0383
23070SOL    HW170651   1.227   7.880   9.378  0.7264  0.9910 -1.0055
23070SOL    HW270652   1.185   7.783   9.270 -0.7798  0.2504  0.2076
23071SOL     OW70653   5.402   3.711   1.795  0.4238  0.0927  0.1050
23071SOL    HW170654   5.399   3.756   1.711 -1.7280 -1.5461 -0.7923
23071SOL    HW270655   5.469   3.759   1.845  2.8744  0.2589 -2.9729
23072SOL     OW70656   4.483   0.664   6.633  0.0683  0.3086  0.5503
23072SOL    HW170657   4.577   0.682   6.633  0.0794  0.2659  1.2366
23072SOL    HW270658   4.459   0.663   6.725 -0.7263  0.9594  0.3651
23073SOL     OW70659   3.548   4.003  12.112 -0.6409 -0.1824  0.3160
23073SOL    HW170660   3.484   4.068  12.083  0.4001  1.6980  1.9807
23073SOL    HW270661   3.546   3.935  12.044  0.3305  2.9524 -3.1626
23074SOL     OW70662   0.324   7.569   5.671  0.1444  0.6229  0.4123
23074SOL    HW170663   0.394   7.508   5.694 -0.1355 -0.3577 -1.1503
23074SOL    HW270664   0.271   7.577   5.750  1.1443  0.1705  1.1505
23075SOL     OW70665   3.600   5.556   3.873  0.2427  0.0402 -0.2384
23075SOL    HW170666   3.555   5.639   3.856  0.4617  0.1822 -0.1257
23075SOL    HW270667   3.648   5.539   3.792  3.2115  1.9260  0.9728
23076SOL     OW70668   5.709   2.438   2.739  0.3431  0.4251  0.4703
23076SOL    HW170669   5.719   2.500   2.812  1.3172  1.0343 -0.1580
23076SOL    HW270670   5.620   2.454   2.706  0.5840  1.5093  0.3077
23077SOL     OW70671   4.838   3.745   8.040 -0.5628  0.3647 -0.3170
23077SOL    HW170672   4.754   3.736   7.994 -0.9397  2.3976 -0.0845
23077SOL    HW270673   4.819   3.802   8.114  1.5371  3.1022 -1.7120
23078SOL     OW70674   1.959   4.395   3.097 -0.0529 -0.1732  0.1473
23078SOL    HW170675   1.929   4.334   3.029 -0.4494 -1.3133  1.3061
23078SOL    HW270676   2.054   4.400   3.083  0.2226 -2.2382  0.9032
23079SOL     OW70677   1.134   0.587   5.562  0.0786 -0.1065 -0.1195
23079SOL    HW170678   1.114   0.500   5.527 -0.0501 -0.9479  1.9040
23079SOL    HW270679   1.049   0.632   5.561 -0.6733 -1.3243  2.1921
23080SOL     OW70680   3.101   7.826   4.443  0.2924 -0.8868 -0.1304
23080SOL    HW170681   3.027   7.855   4.497  1.0946 -1.0925  1.1230
23080SOL    HW270682   3.176   7.876   4.476  0.6638 -0.3611 -1.6739
23081SOL     OW70683   1.366   2.358  11.488  0.2096 -0.2146 -0.1435
23081SOL    HW170684   1.386   2.318  11.403 -0.8595 -0.8794 -0.1137
23081SOL    HW270685   1.445   2.347  11.540 -0.0619 -2.4654 -0.1098
23082SOL     OW70686   5.772   0.797  10.543  0.2257 -0.2264  0.2068
23082SOL    HW170687   5.746   0.869  10.486 -0.0690 -0.5511 -0.0768
23082SOL    HW270688   5.715   0.806  10.620  0.1905 -0.1564  0.1735
23083SOL     OW70689   7.823   1.601   8.305  0.0277  0.1015 -0.0383
23083SOL    HW170690   7.898   1.631   8.254 -0.3579 -0.2321 -0.8171
23083SOL    HW270691   7.747   1.631   8.256 -0.3753 -1.6605 -0.5787
23084SOL     OW70692   6.873   0.513   7.303  0.0737  0.7565 -0.1302
23084SOL    HW170693   6.780   0.514   7.325 -0.0816 -2.4233 -0.0754
23084SOL    HW270694   6.917   0.521   7.387 -0.1948  0.8827  0.0005
23085SOL     OW70695   5.644   2.051   5.272 -0.3769  0.0792  0.4760
23085SOL    HW170696   5.684   1.972   5.308 -1.7153 -0.4254  0.9291
23085SOL    HW270697   5.692   2.069   5.192 -0.3914 -1.5102  0.0902
23086SOL     OW70698   0.838   0.917   8.328  0.7412 -0.2902  0.5548
23086SOL    HW170699   0.822   0.966   8.247 -1.5167  0.5071  1.3894
23086SOL    HW270700   0.819   0.826   8.306  1.9056 -0.3535 -0.2366
23087SOL     OW70701   5.407   2.401   5.784  0.1914 -0.4396 -0.1391
23087SOL    HW170702   5.419   2.320   5.734  3.4657 -0.8473  1.0459
23087SOL    HW270703   5.397   2.469   5.717 -0.0992 -1.5033 -1.2137
23088SOL     OW70704   4.927   0.210   5.043 -0.1561 -0.1011 -0.2478
23088SOL    HW170705   4.965   0.125   5.067 -1.4053 -0.1620  1.8132
23088SOL    HW270706   4.999   0.258   5.003  0.4740 -2.2661 -1.9011
23089SOL     OW70707   0.950   4.072   6.659 -0.0154  0.2223  0.0059
23089SOL    HW170708   0.991   4.017   6.725  1.4612 -0.4978 -1.4423
23089SOL    HW270709   1.023   4.109   6.610 -1.0528  1.4800 -0.6642
23090SOL     OW70710   7.176   1.459   1.724 -0.0441  0.0489 -0.0706
23090SOL    HW170711   7.205   1.436   1.813  0.4178 -0.9845 -0.4647
23090SOL    HW270712   7.168   1.374   1.680 -1.4070  0.4660 -0.6824
23091SOL     OW70713   0.929   0.721   5.293  0.3559  0.6464 -0.6410
23091SOL    HW170714   0.997   0.696   5.231 -0.1961  0.4673 -1.1887
23091SOL    HW270715   0.920   0.644   5.350  0.3413  0.5168 -0.8157
23092SOL     OW70716   1.949   3.784   4.089 -0.6769 -0.2483  0.0466
23092SOL    HW170717   1.994   3.855   4.044 -2.3362  1.6095  1.1573
23092SOL    HW270718   1.864   3.820   4.112 -1.8238 -2.8028  0.1938
23093SOL     OW70719   2.340   3.609   6.548 -0.4711 -0.3640  0.2165
23093SOL    HW170720   2.271   3.632   6.611 -0.1512 -0.0475  0.4583
23093SOL    HW270721   2.299   3.619   6.463 -0.8446 -0.5742  0.3685
23094SOL     OW70722   5.628   7.710   4.422 -0.2785  0.4587  0.5245
23094SOL    HW170723   5.604   7.620   4.443  0.2752  0.7165  2.5162
23094SOL    HW270724   5.550   7.761   4.442 -0.0629  0.6003  1.0185
23095SOL     OW70725   5.243   1.380   9.903 -0.0495  0.5239  0.2570
23095SOL    HW170726   5.244   1.285   9.887 -0.3370  0.6894 -0.8337
23095SOL    HW270727   5.154   1.399   9.930  0.2386  0.3563  1.3413
23096SOL     OW70728   5.965   2.563   2.206  0.0024  0.0291 -0.4478
23096SOL    HW170729   6.019   2.615   2.265 -0.7874 -0.0679  0.3920
23096SOL    HW270730   5.876   2.595   2.221 -0.5833 -1.8561  0.4621
23097SOL     OW70731   0.141   4.235   3.759 -0.1223 -0.2237 -0.2804
23097SOL    HW170732   0.140   4.309   3.699  0.7717 -1.6273 -2.1211
23097SOL    HW270733   0.058   4.240   3.806  0.0282  2.0390 -0.1858
23098SOL     OW70734   5.978   4.188   0.744  0.0708 -0.1815 -0.0561
23098SOL    HW170735   5.903   4.130   0.731 -0.8856  0.3284  2.4941
23098SOL    HW270736   5.940   4.272   0.769  1.4816  0.5609 -0.2760
23099SOL     OW70737   5.096   1.116   0.549  0.0172 -0.5128 -0.7056
23099SOL    HW170738   5.104   1.208   0.523 -1.0407 -0.8904 -2.4582
23099SOL    HW270739   5.186   1.089   0.567  0.3300  0.8870  0.0222
23100SOL     OW70740   0.954   2.482   6.415  0.4814 -0.3580 -0.0564
23100SOL    HW170741   0.864   2.462   6.442  0.8720 -1.6212  0.3750
23100SOL    HW270742   0.982   2.550   6.475 -0.3158  0.3506 -0.4614
23101SOL     OW70743   5.397   5.817   7.073 -0.5382  0.0627 -0.1430
23101SOL    HW170744   5.320   5.787   7.024 -2.0050 -0.0857  2.1005
23101SOL    HW270745   5.367   5.822   7.163  1.8392  1.0170  0.6668
23102SOL     OW70746   3.249   1.993   6.059  0.1353 -0.6303 -0.0100
23102SOL    HW170747   3.330   2.028   6.095 -1.1923  0.9089  1.6336
23102SOL    HW270748   3.275   1.954   5.976  2.2061  1.8156 -0.6301
23103SOL     OW70749   1.054   5.918   3.410 -0.1758 -0.0589 -0.0808
23103SOL    HW170750   1.099   5.852   3.462 -0.2231 -0.7436 -0.8990
23103SOL    HW270751   1.114   5.993   3.410  0.1502 -0.3134  0.3450
23104SOL     OW70752   6.705   5.438  10.461  0.4239  0.2812  0.3832
23104SOL    HW170753   6.754   5.368  10.504  0.3190 -0.3598 -0.5334
23104SOL    HW270754   6.772   5.498  10.429  0.4972  1.0538  1.8647
23105SOL     OW70755   1.684   2.908   2.413  0.4323  0.1573 -0.1130
23105SOL    HW170756   1.650   2.821   2.437  0.2930 -0.0511 -1.0357
23105SOL    HW270757   1.700   2.951   2.497  1.7984 -1.2538  0.3945
23106SOL     OW70758   2.736   7.472   5.886  0.2779  0.2943 -0.3222
23106SOL    HW170759   2.703   7.478   5.796  1.0166  1.2085 -0.5528
23106SOL    HW270760   2.796   7.546   5.894  1.7062 -0.8948  0.3115
23107SOL     OW70761   5.797   2.109   2.218 -0.0325 -0.5286  0.5331
23107SOL    HW170762   5.733   2.073   2.157  0.6875  1.0507 -1.2478
23107SOL    HW270763   5.747   2.124   2.299 -2.0234  0.8677 -0.8627
23108SOL     OW70764   3.706   5.669   7.322  0.2759  0.6724 -0.1047
23108SOL    HW170765   3.734   5.578   7.308 -0.8354  0.2975  0.0156
23108SOL    HW270766   3.764   5.721   7.266  1.4962 -0.0209  0.4786
23109SOL     OW70767   5.157   4.326   0.373 -0.3923  0.1833  0.0251
23109SOL    HW170768   5.222   4.336   0.304  0.5413  2.3236  1.1171
23109SOL    HW270769   5.207   4.302   0.451 -1.0655  0.4694  0.5656
23110SOL     OW70770   4.526   6.888   9.924  0.3830 -0.4292  0.3461
23110SOL    HW170771   4.499   6.803   9.890  2.0228 -0.4053 -1.2322
23110SOL    HW270772   4.528   6.877  10.019 -0.1960 -1.9017  0.2145
23111SOL     OW70773   6.130   0.644  11.179  0.1557  0.3934 -0.0443
23111SOL    HW170774   6.173   0.723  11.145 -0.9088  0.7871 -0.5281
23111SOL    HW270775   6.199   0.578  11.178  1.5964  1.7172  2.0817
23112SOL     OW70776   7.897   2.510   0.980  0.3702 -0.4084  0.2683
23112SOL    HW170777   7.968   2.456   1.015  0.7627  0.2213  0.4638
23112SOL    HW270778   7.833   2.447   0.946  0.7864 -0.9918  0.5524
23113SOL     OW70779   6.072   1.296   7.960 -0.7077 -0.0430 -0.1393
23113SOL    HW170780   6.157   1.252   7.951  0.7291  2.1953  1.3082
23113SOL    HW270781   6.018   1.233   8.008  1.2871 -0.2914  1.9714
23114SOL     OW70782   2.127   0.615   6.801 -0.0048 -0.7179 -0.2834
23114SOL    HW170783   2.045   0.659   6.821 -0.9459 -0.7826 -3.4765
23114SOL    HW270784   2.195   0.679   6.822 -0.7312 -0.6888  2.4751
23115SOL     OW70785   3.184   3.639   9.298  0.3548  0.0464  0.7098
23115SOL    HW170786   3.090   3.638   9.320  0.6883 -1.0126  2.2940
23115SOL    HW270787   3.210   3.730   9.308 -0.6552  0.5036 -0.5580
23116SOL     OW70788   0.705   7.083   4.695  0.0727  0.7801  0.2218
23116SOL    HW170789   0.613   7.077   4.722  0.5627  0.1243  1.8475
23116SOL    HW270790   0.741   6.996   4.714  0.4551  0.1645 -2.7974
23117SOL     OW70791   7.206   0.586  10.861 -0.4507  0.9185  0.1520
23117SOL    HW170792   7.200   0.676  10.892 -1.1973  0.9562 -0.0789
23117SOL    HW270793   7.116   0.562  10.841 -0.0442  0.7532 -1.5977
23118SOL     OW70794   4.831   1.649   9.646  0.5390  0.0079 -0.6099
23118SOL    HW170795   4.842   1.559   9.677 -0.3361  0.4388  1.0435
23118SOL    HW270796   4.902   1.662   9.584  1.1125 -1.5832 -0.3298
23119SOL     OW70797   6.043   4.289   1.098  0.4654  0.6763  0.0622
23119SOL    HW170798   5.966   4.336   1.067  0.9159  0.6345 -1.1758
23119SOL    HW270799   6.058   4.323   1.186 -0.0008  1.8657 -0.2999
23120SOL     OW70800   6.684   3.088   1.435  0.4316 -0.1875 -0.2914
23120SOL    HW170801   6.612   3.034   1.401  0.8433 -1.5788  0.9699
23120SOL    HW270802   6.641   3.168   1.465 -0.4190 -0.4726 -0.7051
23121SOL     OW70803   5.938   2.274  12.047  0.9369 -0.2982  1.2568
23121SOL    HW170804   5.971   2.207  11.987  0.1623  0.9716 -0.6984
23121SOL    HW270805   5.850   2.244  12.071  0.5299  0.0537  0.2579
23122SOL     OW70806   1.877   6.189   7.786  0.0405 -0.0619 -0.4004
23122SOL    HW170807   1.808   6.236   7.831 -0.7639  0.4607 -2.0957
23122SOL    HW270808   1.866   6.211   7.694  2.9862  0.7187 -0.6854
23123SOL     OW70809   0.625   2.014   4.874 -0.2550  0.4861  0.2250
23123SOL    HW170810   0.540   2.041   4.910 -0.3703 -1.1895  1.2710
23123SOL    HW270811   0.631   2.062   4.791 -1.8049  1.3349  0.5556
23124SOL     OW70812   0.419   3.337   1.641  0.1445  0.2096 -0.1743
23124SOL    HW170813   0.496   3.296   1.603  0.8051 -1.2378  2.5342
23124SOL    HW270814   0.350   3.271   1.632 -0.8966  1.4579 -2.4949
23125SOL     OW70815   3.368   2.492   8.065 -0.1419  0.3777 -0.8547
23125SOL    HW170816   3.401   2.523   8.149 -1.8281 -2.6925  1.1178
23125SOL    HW270817   3.447   2.484   8.011  0.9364  2.8587  0.1557
23126SOL     OW70818   3.654   4.433   2.410  0.5749 -0.4997  0.1966
23126SOL    HW170819   3.667   4.373   2.336 -0.9801 -0.1659 -0.3735
23126SOL    HW270820   3.599   4.384   2.471 -0.5543  0.2456 -0.1923
23127SOL     OW70821   1.691   4.591   0.043  0.3817  1.0123 -0.1511
23127SOL    HW170822   1.602   4.556   0.043  1.0299 -0.7288 -0.3096
23127SOL    HW270823   1.697   4.640  -0.039  0.1622 -0.4993 -1.1013
23128SOL     OW70824   6.106   5.127   6.008  0.3223 -0.1272 -0.2551
23128SOL    HW170825   6.086   5.214   5.973 -2.4255 -1.1217 -1.4055
23128SOL    HW270826   6.159   5.144   6.086  3.9104  2.3716 -2.8732
23129SOL     OW70827   2.461   2.548   5.338  0.1226  0.4661  0.2332
23129SOL    HW170828   2.513   2.574   5.263  2.3720 -0.0344  1.5325
23129SOL    HW270829   2.468   2.622   5.399 -0.8547  0.4692  0.3554
23130SOL     OW70830   1.734   5.969   3.236  0.1606  0.1795  0.1435
23130SOL    HW170831   1.674   5.931   3.300  0.3093 -0.9160 -0.3429
23130SOL    HW270832   1.757   5.896   3.178  1.9658  0.5765  0.3063
23131SOL     OW70833   2.960   7.050   7.717 -0.4880 -0.1694  0.1238
23131SOL    HW170834   2.986   7.027   7.628 -0.3437 -0.2087  0.1773
23131SOL    HW270835   2.930   7.140   7.710 -0.1222 -0.0492  0.1098
23132SOL     OW70836   2.038   1.810   0.228 -0.1163  0.1042 -0.8219
23132SOL    HW170837   1.992   1.842   0.150 -0.5257 -0.2002 -0.7135
23132SOL    HW270838   2.107   1.754   0.194 -0.5923 -0.4096 -0.9622
23133SOL     OW70839   2.295   0.222   5.382 -0.1142  0.2069  0.0796
23133SOL    HW170840   2.256   0.135   5.369  0.5884 -0.6862  3.1581
23133SOL    HW270841   2.324   0.222   5.473  2.0910  2.8371 -0.4963
23134SOL     OW70842   2.477   0.932   9.696 -0.3078 -0.1551 -0.0974
23134SOL    HW170843   2.387   0.955   9.720 -0.3829  0.4143 -0.8754
23134SOL    HW270844   2.531   0.972   9.765 -0.5863  0.4781 -0.2372
23135SOL     OW70845   3.286   3.970   2.555 -0.3860  0.4257 -0.2987
23135SOL    HW170846   3.365   3.923   2.581  0.5725  1.4261 -1.2999
23135SOL    HW270847   3.260   3.931   2.472 -0.6775  0.4056 -0.1990
23136SOL     OW70848   0.042   2.749   6.082  0.2320 -0.0551 -0.2826
23136SOL    HW170849  -0.038   2.705   6.053  0.9335 -0.9866 -0.8282
23136SOL    HW270850   0.017   2.842   6.086 -1.1456 -0.4230  0.4961
23137SOL     OW70851   2.551   3.709   2.288 -0.5848 -0.1199 -0.2645
23137SOL    HW170852   2.538   3.797   2.252 -0.4569 -0.2397 -0.6096
23137SOL    HW270853   2.465   3.682   2.319 -0.1618  1.1920  2.3453
23138SOL     OW70854   5.020   0.455  10.618 -0.1653 -0.6394 -0.0891
23138SOL    HW170855   5.071   0.435  10.540 -1.3008 -1.3828 -0.6757
23138SOL    HW270856   5.068   0.416  10.690  1.2579  0.6429 -0.2883
23139SOL     OW70857   3.815   6.112   7.799  0.1044  0.2957 -0.1065
23139SOL    HW170858   3.737   6.070   7.833  0.8681  0.8559  2.5965
23139SOL    HW270859   3.814   6.093   7.705 -2.6704 -0.5932  0.0177
23140SOL     OW70860   1.623   5.707   7.994 -1.1717  0.2235  0.0137
23140SOL    HW170861   1.639   5.788   7.944  0.1413  0.7219  1.1905
23140SOL    HW270862   1.556   5.732   8.058 -2.3473 -0.2352 -0.9813
23141SOL     OW70863   0.122   7.066   2.800 -0.2037  0.3860  0.1631
23141SOL    HW170864   0.182   7.074   2.727 -1.1872  1.4484 -0.5802
23141SOL    HW270865   0.136   6.978   2.835  4.2762  1.6723  2.3172
23142SOL     OW70866   2.766   4.200  10.793 -0.2771 -0.5439 -0.3533
23142SOL    HW170867   2.855   4.232  10.809 -0.6970  0.9010 -0.7625
23142SOL    HW270868   2.768   4.110  10.823  1.4768 -0.7161 -0.8410
23143SOL     OW70869   4.327   7.936   7.470  0.6223 -0.4809  0.0819
23143SOL    HW170870   4.301   8.028   7.462  2.0976  0.0827  1.2101
23143SOL    HW270871   4.267   7.889   7.412  0.1423  1.2412 -0.9016
23144SOL     OW70872   3.313   5.370   3.568 -0.5235  0.4095 -0.1892
23144SOL    HW170873   3.234   5.342   3.613  0.0278  1.2205  1.3594
23144SOL    HW270874   3.384   5.353   3.631  0.4753  0.1668 -1.3405
23145SOL     OW70875   1.632   3.280   6.479  0.2824  0.1371 -0.6363
23145SOL    HW170876   1.630   3.343   6.407  0.6602  0.7891 -0.0941
23145SOL    HW270877   1.696   3.317   6.541 -1.4883  0.6744  0.9816
23146SOL     OW70878   6.378   0.585  10.344  0.0778  0.2103  0.0417
23146SOL    HW170879   6.435   0.509  10.352  0.2471  0.1409 -1.5252
23146SOL    HW270880   6.380   0.607  10.251 -0.9948  1.3415  0.2572
23147SOL     OW70881   0.582   3.296  11.350  0.1319 -0.4505 -0.1263
23147SOL    HW170882   0.586   3.200  11.345  0.7150 -0.3983 -1.0116
23147SOL    HW270883   0.551   3.322  11.263  0.2241  0.1739  0.0293
23148SOL     OW70884   7.669   5.978  10.562  0.0506 -0.4021 -0.7122
23148SOL    HW170885   7.578   5.998  10.540 -0.6500 -1.5329  0.9966
23148SOL    HW270886   7.678   5.884  10.545  0.6746 -0.4572 -0.1182
23149SOL     OW70887   7.517   6.175   1.414  0.5494 -0.4678 -0.5283
23149SOL    HW170888   7.496   6.183   1.508  2.7047  1.0629 -0.1018
23149SOL    HW270889   7.514   6.265   1.381 -1.8961 -1.1342 -2.4245
23150SOL     OW70890   2.051   2.749   5.054 -0.3833 -0.2292  0.3384
23150SOL    HW170891   2.033   2.679   4.992  1.6740 -1.1519  0.7046
23150SOL    HW270892   2.138   2.782   5.029 -0.2809  0.5617  1.6425
23151SOL     OW70893   1.021   5.132   5.227  0.6616  0.3019  0.3774
23151SOL    HW170894   1.032   5.123   5.132  0.2844  2.1495  0.1228
23151SOL    HW270895   1.110   5.147   5.260  0.7221  0.2583  0.2350
23152SOL     OW70896   4.334   0.843   0.138 -0.2511  0.0852 -0.3092
23152SOL    HW170897   4.252   0.800   0.163  1.7632 -3.3000  1.2380
23152SOL    HW270898   4.360   0.891   0.216 -0.1580  0.1717 -0.3937
23153SOL     OW70899   4.519   7.256   5.774 -0.0827  0.4279  0.5243
23153SOL    HW170900   4.442   7.290   5.728  0.3667 -1.0568 -1.4965
23153SOL    HW270901   4.494   7.167   5.799  1.3823 -0.5850 -1.4099
23154SOL     OW70902   7.328   7.156   8.717 -0.3912 -0.1807  0.1776
23154SOL    HW170903   7.342   7.061   8.723  0.8137 -0.2261 -2.3013
23154SOL    HW270904   7.236   7.164   8.690 -0.0005 -0.7732 -1.4453
23155SOL     OW70905   2.390   1.406  10.920 -0.0399 -0.1537  0.0479
23155SOL    HW170906   2.333   1.369  10.853  0.2429 -1.4926  0.5036
23155SOL    HW270907   2.331   1.434  10.989 -0.1858 -1.5246  0.5141
23156SOL     OW70908   0.895   2.394   8.145 -0.0991 -0.1054 -0.2413
23156SOL    HW170909   0.860   2.331   8.208 -0.1330 -0.4928 -0.6394
23156SOL    HW270910   0.865   2.362   8.060 -2.0185  1.6713 -0.3132
23157SOL     OW70911   3.628   0.683   6.273 -0.5132  0.1032  0.3808
23157SOL    HW170912   3.534   0.679   6.288 -0.5947  1.1650  0.2060
23157SOL    HW270913   3.666   0.636   6.347 -1.1811 -0.4737  0.3664
23158SOL     OW70914   4.301   4.986  12.081 -0.2465  0.4549 -0.2816
23158SOL    HW170915   4.356   4.951  12.151 -2.6426  0.3144  1.7079
23158SOL    HW270916   4.215   4.996  12.122 -1.9366 -0.1043 -3.3964
23159SOL     OW70917   5.841   5.434   1.574 -0.3549  0.1359  0.7114
23159SOL    HW170918   5.749   5.445   1.550  0.0166 -0.6488 -1.3168
23159SOL    HW270919   5.889   5.464   1.496  1.0112 -1.9160  0.6939
23160SOL     OW70920   3.382   2.587   0.212 -0.0818 -0.4649  0.2756
23160SOL    HW170921   3.462   2.631   0.243 -0.3593 -0.1702  0.5882
23160SOL    HW270922   3.359   2.633   0.132 -0.2151 -0.2167  0.4538
23161SOL     OW70923   4.940   7.286   1.486 -0.1272  0.0252  0.4494
23161SOL    HW170924   4.848   7.277   1.462 -0.5412  0.6006  1.7632
23161SOL    HW270925   4.959   7.208   1.538  0.0686  0.0093  0.3554
23162SOL     OW70926   3.129   0.917  10.777  0.2140  0.0531 -0.1485
23162SOL    HW170927   3.090   0.873  10.702  0.8400  1.3790 -1.3035
23162SOL    HW270928   3.068   0.986  10.800  0.7397  0.6257 -0.4389
23163SOL     OW70929   7.101   3.993  11.259  0.2811  0.2746  0.5043
23163SOL    HW170930   7.032   3.933  11.286  0.2599  0.8237  1.7572
23163SOL    HW270931   7.056   4.059  11.207  0.6540 -1.9837 -2.9625
23164SOL     OW70932   3.897   5.080   0.740 -0.3418  0.1370  0.5391
23164SOL    HW170933   3.890   5.008   0.677 -3.4995 -0.3168  1.2618
23164SOL    HW270934   3.922   5.156   0.687  1.5361 -1.1075 -0.4738
23165SOL     OW70935   5.563   1.166   4.495  0.2017 -0.1640  0.3640
23165SOL    HW170936   5.555   1.099   4.427 -1.5844 -0.0236  0.4089
23165SOL    HW270937   5.578   1.247   4.446  1.1247 -0.3884  0.2559
23166SOL     OW70938   6.763   4.837  11.857  0.5468  0.1517 -0.2311
23166SOL    HW170939   6.685   4.881  11.820  0.5358  2.0568  1.8279
23166SOL    HW270940   6.727   4.763  11.906  0.0776  0.4838 -0.0515
23167SOL     OW70941   1.269   1.851   0.796  0.4312 -0.0807 -0.3968
23167SOL    HW170942   1.290   1.942   0.777  1.5286  0.4324  2.7253
23167SOL    HW270943   1.178   1.841   0.768  0.1258  2.1288 -0.3408
23168SOL     OW70944   1.684   7.705  10.224 -0.0784  0.1806 -0.1075
23168SOL    HW170945   1.631   7.664  10.156  0.3323 -2.6563  1.1382
23168SOL    HW270946   1.745   7.636  10.251  2.7520  2.5820  0.1057
23169SOL     OW70947   1.049   1.214   8.504 -0.4628 -0.2270 -0.8686
23169SOL    HW170948   1.032   1.119   8.507 -0.3774 -0.2227  0.5448
23169SOL    HW270949   1.028   1.239   8.414 -0.8868 -1.5182 -1.1579
23170SOL     OW70950   1.375   7.809   9.988  0.0120  0.3218 -0.2922
23170SOL    HW170951   1.388   7.748   9.916 -0.3479 -0.1441  0.0308
23170SOL    HW270952   1.282   7.832   9.983  0.3676  1.7181 -1.0906
23171SOL     OW70953   4.848   5.669   1.508  0.0610 -0.2281  0.0806
23171SOL    HW170954   4.779   5.664   1.575  0.3070 -3.0270  0.2316
23171SOL    HW270955   4.870   5.578   1.489  4.0661  0.5304  0.3338
23172SOL     OW70956   0.766   7.229  11.962 -0.2771  0.1855 -0.1904
23172SOL    HW170957   0.677   7.234  11.927 -0.6678  1.3356  0.8883
23172SOL    HW270958   0.809   7.309  11.931  1.0404 -1.2691 -2.3206
23173SOL     OW70959   3.124   4.956   3.250  0.1033  0.1307 -0.4062
23173SOL    HW170960   3.187   5.021   3.282 -1.4364  1.8643 -0.7385
23173SOL    HW270961   3.105   4.983   3.160 -1.4484 -0.0478 -0.1582
23174SOL     OW70962   1.505   5.547   6.707  0.4468  0.7517 -0.6080
23174SOL    HW170963   1.572   5.554   6.638 -0.3395  1.0744 -1.3552
23174SOL    HW270964   1.424   5.526   6.659  0.4189 -2.0270  0.4478
23175SOL     OW70965   3.942   6.810   7.810  0.8706 -0.0058  0.7984
23175SOL    HW170966   3.994   6.747   7.860 -1.0083 -1.3704  1.1265
23175SOL    HW270967   3.865   6.825   7.864  1.6093  3.2902  1.1292
23176SOL     OW70968   1.359   5.600  10.084 -0.3172  0.7188  0.3157
23176SOL    HW170969   1.317   5.676  10.043 -0.4811  0.6550  0.3639
23176SOL    HW270970   1.438   5.635  10.124 -0.9901  1.0780  1.3501
23177SOL     OW70971   3.828   1.835   0.338 -0.3707 -0.1561  0.1419
23177SOL    HW170972   3.852   1.803   0.424  0.4018  1.7684  0.7037
23177SOL    HW270973   3.733   1.821   0.333 -0.5737  0.4497  1.6647
23178SOL     OW70974   6.417   3.568   0.148 -0.4981  0.0341  0.2250
23178SOL    HW170975   6.468   3.630   0.097 -0.2008 -0.0588  0.4055
23178SOL    HW270976   6.327   3.579   0.117 -0.4107  0.3903  0.0982
23179SOL     OW70977   3.557   4.941   4.590  0.1283  0.4766  0.0753
23179SOL    HW170978   3.652   4.949   4.601  0.1251 -0.7838  1.3092
23179SOL    HW270979   3.521   4.984   4.668 -0.2178 -0.8394  0.6664
23180SOL     OW70980   2.887   1.253   1.765 -0.4585 -0.1731 -0.2569
23180SOL    HW170981   2.926   1.170   1.738 -0.5408 -0.3787  0.2339
23180SOL    HW270982   2.950   1.320   1.737  0.4973 -0.5326  0.9393
23181SOL     OW70983   7.638   7.418  12.178 -0.1169 -0.6403 -0.1406
23181SOL    HW170984   7.602   7.342  12.223 -0.5978 -0.3890 -0.1029
23181SOL    HW270985   7.623   7.400  12.085  1.0442 -1.2462 -0.2281
23182SOL     OW70986   7.433   4.182   1.405  0.4237 -0.3270  0.5775
23182SOL    HW170987   7.482   4.246   1.354 -0.0499 -0.7722 -0.4473
23182SOL    HW270988   7.451   4.098   1.363 -2.6378 -0.2953 -0.9993
23183SOL     OW70989   6.187   7.804   9.151  0.0470  0.0412 -0.3778
23183SOL    HW170990   6.257   7.823   9.089 -1.0494  0.0804 -1.6687
23183SOL    HW270991   6.123   7.754   9.099 -0.2521 -1.1940  1.1219
23184SOL     OW70992   5.567   6.390   6.846  0.6148 -0.2856 -0.2345
23184SOL    HW170993   5.576   6.469   6.792  0.1184  0.5828  0.8994
23184SOL    HW270994   5.535   6.323   6.786  0.3548  0.5759 -1.0795
23185SOL     OW70995   7.473   1.654   9.694 -0.8372  0.1752 -0.1269
23185SOL    HW170996   7.566   1.638   9.681 -0.7108 -0.8258  1.7116
23185SOL    HW270997   7.434   1.642   9.608  0.6736  0.2849 -0.8534
23186SOL     OW70998   5.628   5.570   0.743 -0.1522 -0.6697  0.3079
23186SOL    HW170999   5.542   5.572   0.787  0.7170 -0.3528  2.0778
23186SOL    HW271000   5.609   5.601   0.654 -1.9491 -1.0786  0.4950
23187SOL     OW71001   3.792   6.194   6.287  0.8687  0.3746  0.7270
23187SOL    HW171002   3.871   6.225   6.244  0.2363  2.2774  0.8668
23187SOL    HW271003   3.720   6.229   6.235 -0.0669 -4.1052 -1.4563
23188SOL     OW71004   5.604   2.908   8.807 -0.2456  0.0154  0.0079
23188SOL    HW171005   5.609   2.991   8.761 -1.1469  0.0881  0.0200
23188SOL    HW271006   5.604   2.931   8.900  0.9393 -0.0965  0.0585
23189SOL     OW71007   2.454   7.060   4.240  0.3432 -0.5648  0.2480
23189SOL    HW171008   2.520   7.129   4.242 -0.4525  0.2175  1.7465
23189SOL    HW271009   2.504   6.979   4.239  1.3604  0.0182  1.2076
23190SOL     OW71010   3.495   3.215   4.186  0.1790 -0.4360 -0.3848
23190SOL    HW171011   3.473   3.237   4.095  1.5268 -0.3035 -0.7009
23190SOL    HW271012   3.581   3.254   4.200  0.7473 -1.8957  0.4083
23191SOL     OW71013   2.357   6.486  12.358 -0.0542 -0.2480 -0.1479
23191SOL    HW171014   2.374   6.521  12.270 -0.1995 -1.2812 -0.5941
23191SOL    HW271015   2.377   6.559  12.417 -0.8416  0.7553 -1.0871
23192SOL     OW71016   3.452   2.698   5.291 -0.2743  0.2935 -0.2269
23192SOL    HW171017   3.451   2.730   5.201  1.2925  1.5651  0.1548
23192SOL    HW271018   3.528   2.740   5.330 -0.8329 -0.3530  1.6591
23193SOL     OW71019   6.547   5.533   4.516  0.1335  0.7519  0.1476
23193SOL    HW171020   6.512   5.498   4.598  1.2704  0.4566  0.5249
23193SOL    HW271021   6.490   5.607   4.495 -1.9322 -0.8424 -0.3090
23194SOL     OW71022   6.340   7.005  11.163  0.1853 -0.2613 -0.0584
23194SOL    HW171023   6.430   7.015  11.193 -0.1946  0.0047  1.0671
23194SOL    HW271024   6.333   6.912  11.139  0.0504 -1.0169  2.5080
23195SOL     OW71025   1.120   1.449   8.808 -0.4299  0.1256 -0.5132
23195SOL    HW171026   1.199   1.441   8.862 -1.7602 -0.0557  1.5040
23195SOL    HW271027   1.146   1.506   8.736  1.4922  0.2170  0.1991
23196SOL     OW71028   6.979   5.773  12.355 -0.1174  0.8320 -0.5589
23196SOL    HW171029   6.930   5.792  12.436  0.0265  1.5822 -0.6496
23196SOL    HW271030   6.914   5.782  12.286 -0.6470 -1.3610 -0.4292
23197SOL     OW71031   2.580   7.423   1.995 -0.1156  0.3859  0.7055
23197SOL    HW171032   2.586   7.381   1.909 -2.9183 -0.0127  0.6113
23197SOL    HW271033   2.509   7.376   2.039 -0.6065  2.3794  2.1544
23198SOL     OW71034   3.737   2.639   5.056 -0.5563  0.5517 -0.1569
23198SOL    HW171035   3.701   2.714   5.103  3.0856  3.1297 -0.9785
23198SOL    HW271036   3.824   2.669   5.027  0.8504 -3.8015 -1.1831
23199SOL     OW71037   4.196   1.609  12.017 -0.4471  0.0732  0.5757
23199SOL    HW171038   4.224   1.543  11.953  0.7432  0.0119  1.1423
23199SOL    HW271039   4.128   1.658  11.972 -0.4778 -0.7479 -0.3038
23200SOL     OW71040   7.106   0.711   5.444  0.7024 -0.0364 -0.1449
23200SOL    HW171041   7.103   0.740   5.352  1.7941  1.7853  0.3313
23200SOL    HW271042   7.051   0.774   5.490  1.9762  0.4643  0.7413
23201SOL     OW71043   6.878   1.362  11.506  0.4058  0.8598 -0.5596
23201SOL    HW171044   6.851   1.447  11.542 -2.2814 -0.6516  1.3099
23201SOL    HW271045   6.929   1.321  11.576 -0.5047 -0.0627 -0.4193
23202SOL     OW71046   7.819   1.809  11.206  0.4217 -0.1735 -0.1626
23202SOL    HW171047   7.872   1.731  11.220  0.3139 -0.1905  0.1787
23202SOL    HW271048   7.744   1.798  11.265 -0.6845 -0.8008 -1.6297
23203SOL     OW71049   4.114   2.056   6.526 -0.1273  1.0588  0.1512
23203SOL    HW171050   4.161   1.974   6.539 -1.9240  0.2070  1.9442
23203SOL    HW271051   4.049   2.036   6.459  0.9768  1.7682 -1.1705
23204SOL     OW71052   5.291   0.102   4.698  0.6033 -0.2190 -0.0421
23204SOL    HW171053   5.355   0.053   4.749  0.2396 -0.7162 -0.0607
23204SOL    HW271054   5.313   0.194   4.714  2.1997 -0.3650 -1.1386
23205SOL     OW71055   6.802   1.599   4.484 -0.4716 -0.2960  0.3383
23205SOL    HW171056   6.762   1.682   4.457 -0.3429 -0.0616  0.8585
23205SOL    HW271057   6.735   1.533   4.465  0.1264 -0.3507 -1.8813
23206SOL     OW71058   7.467   3.647  12.410 -0.2129 -0.2772  0.2434
23206SOL    HW171059   7.498   3.708  12.477 -2.2179  1.6966 -0.5183
23206SOL    HW271060   7.542   3.636  12.352  0.7653 -0.0128  1.4157
23207SOL     OW71061   7.483   3.253   2.406  0.1089  0.2209  0.7038
23207SOL    HW171062   7.547   3.278   2.339 -1.0801 -0.0020 -0.5671
23207SOL    HW271063   7.492   3.320   2.473  0.9294  0.8023  0.0428
23208SOL     OW71064   0.580   4.047   2.560 -0.1760  0.1260 -0.0974
23208SOL    HW171065   0.551   4.094   2.638  2.2871  0.9974  0.3958
23208SOL    HW271066   0.608   3.961   2.592  0.9539  0.5279  0.0528
23209SOL     OW71067   5.384   7.799   2.345 -0.5776 -0.1061  0.1875
23209SOL    HW171068   5.322   7.747   2.396 -0.3235 -0.6011 -0.0026
23209SOL    HW271069   5.418   7.864   2.407 -1.3773  0.2657  0.2646
23210SOL     OW71070   3.264   4.308   1.507 -0.4709 -0.2448 -0.0094
23210SOL    HW171071   3.309   4.293   1.424 -1.8014 -1.3680 -0.5754
23210SOL    HW271072   3.257   4.221   1.546 -1.1486  0.0696  0.5937
23211SOL     OW71073   1.780   6.180  10.355 -0.0479 -0.0439  0.3553
23211SOL    HW171074   1.795   6.115  10.287 -1.5599 -0.3018  0.2269
23211SOL    HW271075   1.809   6.137  10.436  0.7055 -0.1586  0.0324
23212SOL     OW71076   5.559   1.190   5.384 -0.1512  0.1582  0.2540
23212SOL    HW171077   5.632   1.181   5.324  0.4972  0.4350  0.9897
23212SOL    HW271078   5.598   1.188   5.471 -0.7859  2.0105  0.6478
23213SOL     OW71079   2.864   2.266   1.188  0.6918 -0.5914  0.2575
23213SOL    HW171080   2.896   2.336   1.131 -0.0608 -1.0567 -0.7507
23213SOL    HW271081   2.915   2.277   1.269  1.9412 -0.0695 -0.5659
23214SOL     OW71082   3.201   0.646   9.436 -0.1582 -0.2719  0.1297
23214SOL    HW171083   3.276   0.593   9.409 -0.7940 -1.2075  0.1609
23214SOL    HW271084   3.236   0.705   9.503  0.4945 -0.8778  0.3290
23215SOL     OW71085   4.146   4.676   8.123  0.7755  0.2166  0.1878
23215SOL    HW171086   4.167   4.682   8.217  0.8437 -0.7205  0.2466
23215SOL    HW271087   4.051   4.674   8.120  0.6462  3.0281  0.0196
23216SOL     OW71088   0.286   2.460   4.219  0.0513  0.2782 -0.1898
23216SOL    HW171089   0.315   2.550   4.208 -1.3190  0.7792  0.0203
23216SOL    HW271090   0.190   2.466   4.219 -0.0800 -0.9036  1.7657
23217SOL     OW71091   0.075   1.443  11.863  0.7069 -0.0217 -0.2584
23217SOL    HW171092   0.015   1.389  11.914  0.8410 -0.5694 -0.6729
23217SOL    HW271093   0.115   1.502  11.928  1.3182 -1.1142  0.3902
23218SOL     OW71094   7.639   5.519   4.674  0.1096 -0.4555  0.0914
23218SOL    HW171095   7.569   5.519   4.740 -1.9628  0.0963 -1.9859
23218SOL    HW271096   7.629   5.602   4.628  0.9861 -1.1587 -1.4323
23219SOL     OW71097   5.340   6.869   3.139  0.2060  0.4965 -0.1107
23219SOL    HW171098   5.311   6.902   3.054 -1.0728 -3.0760 -1.2283
23219SOL    HW271099   5.417   6.816   3.118  0.4426  0.3343  1.1197
23220SOL     OW71100   1.536   0.176  11.029  0.0487 -0.5355 -0.2150
23220SOL    HW171101   1.572   0.262  11.006  0.7862 -1.0230 -0.9405
23220SOL    HW271102   1.488   0.191  11.111 -0.2264  0.6614 -0.5715
23221SOL     OW71103   5.559   0.190   6.850 -0.0412  0.2562  0.1984
23221SOL    HW171104   5.480   0.193   6.797  0.6982 -0.1276 -0.9721
23221SOL    HW271105   5.588   0.282   6.855 -1.4080  0.6409  2.0238
23222SOL     OW71106   1.037   4.846   3.931 -0.1365  0.2222 -0.1533
23222SOL    HW171107   1.103   4.780   3.954  0.3888  1.0435  0.7520
23222SOL    HW271108   1.037   4.907   4.004 -1.3346  0.6918 -0.5161
23223SOL     OW71109   7.293   6.819   1.862 -0.1213 -0.5780 -0.1149
23223SOL    HW171110   7.295   6.773   1.945  1.3319  1.0991  0.8457
23223SOL    HW271111   7.222   6.882   1.871 -1.2835 -1.7215 -0.9506
23224SOL     OW71112   4.209   2.314   6.709 -0.1474  0.3298 -0.4540
23224SOL    HW171113   4.176   2.232   6.745 -2.1410  1.4830  0.4983
23224SOL    HW271114   4.225   2.295   6.617 -0.4493 -1.1626 -0.2209
23225SOL     OW71115   7.041   2.129   6.228  0.3074  0.0479 -0.3757
23225SOL    HW171116   7.127   2.167   6.249  0.0978  0.3089  0.0264
23225SOL    HW271117   7.045   2.040   6.264  0.6915 -0.2168 -1.0564
23226SOL     OW71118   6.795   5.910   0.517 -0.0346  0.0630 -0.1563
23226SOL    HW171119   6.755   5.944   0.596  1.8407 -0.1070  0.9471
23226SOL    HW271120   6.748   5.828   0.499 -1.0983  0.5845  0.2274
23227SOL     OW71121   4.705   2.822   0.022  0.8093 -0.1727 -0.0926
23227SOL    HW171122   4.673   2.824  -0.069 -0.4042 -0.4758  0.3074
23227SOL    HW271123   4.639   2.871   0.071  1.6215  0.2590  0.5906
23228SOL     OW71124   7.706   7.957   1.778 -0.1022  0.0922  0.2290
23228SOL    HW171125   7.665   7.992   1.857  0.0290 -0.0631  0.3663
23228SOL    HW271126   7.771   8.023   1.754  2.0017 -1.2086  1.9795
23229SOL     OW71127   6.258   6.738   3.517 -0.0455 -0.2103  0.3291
23229SOL    HW171128   6.229   6.758   3.428  0.5380 -0.6480  0.0296
23229SOL    HW271129   6.335   6.682   3.505  0.2542  0.0141  1.1055
23230SOL     OW71130   4.256   0.308   0.088 -0.4599 -0.1092  0.5572
23230SOL    HW171131   4.285   0.398   0.102 -0.7312 -0.0227  0.5827
23230SOL    HW271132   4.182   0.316   0.028 -0.5116 -0.3107  0.5940
23231SOL     OW71133   7.239   0.164   8.637 -0.0537 -0.7220  0.2982
23231SOL    HW171134   7.308   0.127   8.693  0.7964 -1.1521 -1.0003
23231SOL    HW271135   7.283   0.183   8.554 -1.5986 -1.3910 -0.7134
23232SOL     OW71136   4.794   5.436   7.677 -0.2826 -0.2948 -0.2088
23232SOL    HW171137   4.729   5.378   7.637 -0.5277  0.2653 -0.6335
23232SOL    HW271138   4.783   5.519   7.632 -1.2026  0.6446  1.6427
23233SOL     OW71139   2.594   3.008   4.191 -0.2111  0.2523 -0.1241
23233SOL    HW171140   2.584   3.066   4.116 -0.7575 -0.5135 -0.6574
23233SOL    HW271141   2.664   2.947   4.166  0.1889  0.5116  0.3321
23234SOL     OW71142   0.280   5.294  10.009 -0.8713 -0.3738 -0.4449
23234SOL    HW171143   0.282   5.284  10.105 -1.0635  1.0293 -0.2760
23234SOL    HW271144   0.218   5.365   9.994 -0.2544 -0.0572 -1.5680
23235SOL     OW71145   6.205   4.837   4.586  0.3753  0.0106 -0.8374
23235SOL    HW171146   6.237   4.899   4.520 -0.3144  0.3441 -0.8695
23235SOL    HW271147   6.139   4.784   4.540 -0.4770  0.5782 -0.3005
23236SOL     OW71148   1.299   0.266   4.886  0.1576  0.3702 -0.7705
23236SOL    HW171149   1.268   0.231   4.970  1.8430  1.4356  0.3548
23236SOL    HW271150   1.394   0.263   4.892  0.3481  2.3044 -1.8180
23237SOL     OW71151   0.756   4.116   8.497  0.1844 -0.2666 -0.1115
23237SOL    HW171152   0.763   4.179   8.569 -1.0149 -0.0025 -0.2195
23237SOL    HW271153   0.843   4.076   8.493  0.3273 -0.1663  1.3744
23238SOL     OW71154   1.683   0.610   9.939 -0.0212 -0.1049  0.6492
23238SOL    HW171155   1.641   0.542   9.887 -1.8190 -0.2277  2.1606
23238SOL    HW271156   1.633   0.690   9.920  1.0002  0.4382  0.1750
23239SOL     OW71157   6.068   0.619   0.685 -0.1858  0.5108 -0.4475
23239SOL    HW171158   6.116   0.537   0.689 -1.8914 -0.5404 -0.4938
23239SOL    HW271159   6.052   0.634   0.591 -0.9498  0.2087 -0.3775
23240SOL     OW71160   6.646   1.696   1.749  0.1589 -0.0440 -0.2596
23240SOL    HW171161   6.623   1.788   1.758  1.8951  0.5142 -1.3047
23240SOL    HW271162   6.589   1.664   1.679  0.6592  0.6549 -1.0013
23241SOL     OW71163   5.726   5.677  12.111  0.3345  0.3022 -0.1384
23241SOL    HW171164   5.815   5.662  12.080  0.1252  1.5826 -1.4313
23241SOL    HW271165   5.730   5.657  12.205  1.6076 -1.0969 -0.4480
23242SOL     OW71166   3.631   5.125  10.197  0.2871 -0.1283 -0.2470
23242SOL    HW171167   3.641   5.107  10.103 -0.4028 -0.1877 -0.3197
23242SOL    HW271168   3.679   5.055  10.240 -0.2443 -0.6915 -0.5534
23243SOL     OW71169   6.224   4.155   2.248 -0.1517 -0.7782  0.3317
23243SOL    HW171170   6.237   4.172   2.154  2.0408  0.3449  0.7796
23243SOL    HW271171   6.163   4.223   2.277  1.2234  0.5436  0.2129
23244SOL     OW71172   5.279   7.370   1.236  0.0483 -0.2006  0.6964
23244SOL    HW171173   5.237   7.393   1.319 -0.4464 -0.4291  0.5098
23244SOL    HW271174   5.224   7.301   1.199 -0.0189  0.2485 -0.0637
23245SOL     OW71175   0.394   1.228   3.672  0.3454 -0.2260 -0.3025
23245SOL    HW171176   0.412   1.171   3.598  1.0222 -0.5956  0.1351
23245SOL    HW271177   0.398   1.317   3.636  3.2259 -0.2433 -0.2511
23246SOL     OW71178   0.165   3.034   0.583 -0.1164 -0.3278  0.0976
23246SOL    HW171179   0.146   3.075   0.667 -0.9701 -1.2758  0.3899
23246SOL    HW271180   0.242   3.081   0.550 -1.4405  1.9413  0.0701
23247SOL     OW71181   7.864   5.217   9.868 -0.1419 -0.1726  0.6930
23247SOL    HW171182   7.858   5.145   9.805 -0.2804 -1.2433  1.8802
23247SOL    HW271183   7.838   5.294   9.818 -0.1135 -0.9588 -0.5936
23248SOL     OW71184   2.526   4.247   0.301  0.1712  0.1281 -0.4438
23248SOL    HW171185   2.558   4.161   0.328  1.9373  0.7780 -0.3272
23248SOL    HW271186   2.584   4.309   0.346 -0.4612  1.3526 -1.2715
23249SOL     OW71187   6.915   5.231   2.421  0.2223 -0.3353  0.1552
23249SOL    HW171188   6.871   5.266   2.498  0.0441 -0.5680  0.1613
23249SOL    HW271189   7.007   5.224   2.447  0.5663  1.6490 -0.3843
23250SOL     OW71190   6.299   4.317   7.303 -0.1764 -1.2213  0.0176
23250SOL    HW171191   6.261   4.404   7.317 -1.0176 -1.7018  0.8650
23250SOL    HW271192   6.226   4.256   7.315  0.4847 -2.0735 -0.1514
23251SOL     OW71193   2.717   5.947   2.562 -0.2900  0.0118  0.1761
23251SOL    HW171194   2.733   6.030   2.517  0.4966 -0.6149 -0.7482
23251SOL    HW271195   2.753   5.881   2.503 -2.0231 -1.0950  0.2915
23252SOL     OW71196   2.082   0.545   0.170  0.0829  0.1179  0.7934
23252SOL    HW171197   2.170   0.577   0.150 -0.7149  1.8155 -0.2178
23252SOL    HW271198   2.034   0.623   0.198 -1.6582 -0.3360 -0.7549
23253SOL     OW71199   0.093   2.272   2.493 -0.1727 -0.0375 -0.0112
23253SOL    HW171200   0.065   2.314   2.412  0.3801  0.5266  0.0889
23253SOL    HW271201   0.165   2.325   2.524  0.6211 -1.1147  0.0589
23254SOL     OW71202   1.193   2.847   9.036 -0.1456  0.1123  0.0064
23254SOL    HW171203   1.149   2.910   8.979 -1.3821  0.5449  1.3704
23254SOL    HW271204   1.125   2.784   9.058  0.3906 -0.2142  0.7507
23255SOL     OW71205   2.554   0.798  10.525  0.8709  0.2982  0.2436
23255SOL    HW171206   2.480   0.858  10.524  1.6330  1.2522 -0.3423
23255SOL    HW271207   2.516   0.713  10.504 -0.0131  0.8201 -0.3355
23256SOL     OW71208   5.685   4.089   8.110  0.1308 -0.2292 -0.4526
23256SOL    HW171209   5.624   4.076   8.183  1.4622 -4.5195  0.1712
23256SOL    HW271210   5.755   4.143   8.147 -0.2110 -0.6171  0.8115
23257SOL     OW71211   5.415   7.480   3.819 -0.0601 -0.0465  0.9152
23257SOL    HW171212   5.471   7.476   3.742  0.2998  1.0605  1.0907
23257SOL    HW271213   5.476   7.495   3.892 -0.5319  0.6817  1.1735
23258SOL     OW71214   5.267   1.844   7.868  0.4471  0.4069  0.8044
23258SOL    HW171215   5.362   1.833   7.866  0.4834  0.7289  0.6103
23258SOL    HW271216   5.232   1.755   7.868  0.7555  0.2858  1.2560
23259SOL     OW71217   1.096   0.400   8.025  0.3700 -0.5482  0.2755
23259SOL    HW171218   1.011   0.362   8.002  0.8366 -2.5748  1.6078
23259SOL    HW271219   1.075   0.472   8.085 -0.4356 -0.4728 -0.0840
23260SOL     OW71220   4.637   7.505   5.382 -0.4151  0.5728  0.5094
23260SOL    HW171221   4.633   7.541   5.470 -0.6312  1.2461  0.2355
23260SOL    HW271222   4.653   7.411   5.394 -3.2319  0.0998  1.3693
23261SOL     OW71223   1.664   1.928  11.042  0.3023  0.0856  0.1043
23261SOL    HW171224   1.686   1.928  11.135 -0.4930 -0.1338  0.2987
23261SOL    HW271225   1.620   1.845  11.027  0.5198  0.0728 -0.4963
23262SOL     OW71226   1.561   0.402   4.610  0.3702 -0.2325  0.6452
23262SOL    HW171227   1.584   0.364   4.526  1.4791  0.5314  0.5719
23262SOL    HW271228   1.599   0.343   4.675  1.4351  0.3137  0.5462
23263SOL     OW71229   3.489   6.105   6.571 -0.3925 -0.0139 -0.4822
23263SOL    HW171230   3.458   6.065   6.490 -1.7306  0.4947 -0.2419
23263SOL    HW271231   3.445   6.190   6.575 -0.8521 -0.2827  1.0707
23264SOL     OW71232   4.234   7.658   7.957  0.0909  0.2044 -0.2004
23264SOL    HW171233   4.156   7.649   8.012  0.9984  0.3608  1.1680
23264SOL    HW271234   4.231   7.748   7.924  0.3520  0.6457  0.9295
23265SOL     OW71235   7.220   7.002  11.997  0.0210 -0.1538 -0.5821
23265SOL    HW171236   7.218   6.915  11.958 -0.1675  0.0556 -1.0561
23265SOL    HW271237   7.146   7.048  11.957 -0.8608 -0.2800  0.8663
23266SOL     OW71238   2.909   7.214   4.384 -0.5059 -1.3119  0.3727
23266SOL    HW171239   2.981   7.275   4.367 -0.1576 -1.8069  0.0615
23266SOL    HW271240   2.836   7.249   4.333 -1.0682  0.2335  2.1126
23267SOL     OW71241   4.567   5.849   2.871 -0.7481  0.5098  0.2703
23267SOL    HW171242   4.484   5.886   2.841 -1.2793  1.3169  2.5174
23267SOL    HW271243   4.632   5.916   2.850 -0.4531 -0.4529 -2.2120
23268SOL     OW71244   5.741   2.303   4.870  0.1019  0.1995  0.1610
23268SOL    HW171245   5.662   2.295   4.923  0.3443  1.3660  0.7323
23268SOL    HW271246   5.716   2.364   4.800  0.1319 -0.4190 -0.4002
23269SOL     OW71247   4.260   3.144   5.740 -0.2402  0.7032  0.0292
23269SOL    HW171248   4.302   3.161   5.656 -0.8603 -0.2853 -0.4990
23269SOL    HW271249   4.176   3.103   5.718 -0.4538  0.5032  1.1228
23270SOL     OW71250   7.251   5.858   0.832 -0.4556  0.0187 -0.4643
23270SOL    HW171251   7.219   5.768   0.839 -2.4209  0.6923 -0.3825
23270SOL    HW271252   7.264   5.886   0.922  0.5412 -0.2897 -0.4995
23271SOL     OW71253   7.225   4.773  11.641  0.0453 -0.1252 -0.3160
23271SOL    HW171254   7.132   4.798  11.647  0.3689  1.3558 -1.0022
23271SOL    HW271255   7.230   4.689  11.686 -1.7757 -0.6085 -0.9432
23272SOL     OW71256   7.200   3.594   2.217 -0.0915  0.5256  0.0011
23272SOL    HW171257   7.261   3.639   2.159  0.7050  1.9658  1.8085
23272SOL    HW271258   7.234   3.612   2.305 -0.5805 -2.5059  0.9076
23273SOL     OW71259   1.759   0.614  11.260  0.0445 -0.6771  0.5307
23273SOL    HW171260   1.783   0.527  11.230 -1.3199 -0.5911 -0.9308
23273SOL    HW271261   1.721   0.600  11.347  0.9808 -1.3515  0.8540
23274SOL     OW71262   5.397   2.422   1.070  0.0954 -0.2299 -0.2339
23274SOL    HW171263   5.491   2.410   1.055  0.2631  0.9457 -0.2696
23274SOL    HW271264   5.391   2.451   1.161 -0.0794  1.1024 -0.6522
23275SOL     OW71265   3.975   6.504   8.464 -0.1159 -0.2579 -0.0646
23275SOL    HW171266   4.011   6.593   8.470  0.7610 -0.6888  1.5239
23275SOL    HW271267   3.970   6.474   8.555  0.6150 -2.2310 -0.6386
23276SOL     OW71268   1.824   7.654   4.700 -0.3742  0.1123  0.7643
23276SOL    HW171269   1.738   7.651   4.743 -0.8777 -0.3583 -0.2572
23276SOL    HW271270   1.884   7.685   4.769 -1.2105 -0.3432  1.7190
23277SOL     OW71271   5.018   6.537  10.966  0.6624  0.3295 -0.0822
23277SOL    HW171272   4.973   6.610  10.923 -1.5387 -1.3676 -0.8814
23277SOL    HW271273   5.043   6.479  10.895  1.3404 -0.2392  0.6093
23278SOL     OW71274   6.244   2.675   6.043 -0.1410 -0.0292  0.3074
23278SOL    HW171275   6.240   2.681   6.138  0.5799  0.9959  0.2919
23278SOL    HW271276   6.328   2.633   6.025  0.2011  0.7135  0.1172
23279SOL     OW71277   2.878   6.110   2.215 -0.1674  0.2029 -0.0498
23279SOL    HW171278   2.851   6.133   2.304 -0.2718 -0.7841  0.1873
23279SOL    HW271279   2.948   6.047   2.226  1.1558  1.5040 -0.6819
23280SOL     OW71280   7.044   2.869  10.265  0.3133 -0.6797  0.1232
23280SOL    HW171281   7.055   2.816  10.186 -0.8238 -1.0275  0.1689
23280SOL    HW271282   6.980   2.936  10.240 -1.3896 -1.8227  1.1855
23281SOL     OW71283   1.074   1.831   9.072  0.3669 -0.2043  0.0977
23281SOL    HW171284   1.130   1.790   9.007  1.3153  2.0301 -0.5891
23281SOL    HW271285   1.030   1.758   9.116  3.1825 -2.0154  0.1204
23282SOL     OW71286   5.912   3.697   2.985 -0.0541 -0.3243  0.2366
23282SOL    HW171287   5.941   3.784   2.956 -0.5579  0.0053  0.6992
23282SOL    HW271288   5.950   3.637   2.922  1.2669  0.1347  0.5653
23283SOL     OW71289   0.893   5.667   6.104  0.4830 -0.4229 -0.3946
23283SOL    HW171290   0.867   5.719   6.028  1.0151 -1.2020 -1.1184
23283SOL    HW271291   0.894   5.576   6.073  0.5640 -0.7742  0.5786
23284SOL     OW71292   7.412   7.313   9.512  0.1223 -0.0972  0.4951
23284SOL    HW171293   7.459   7.287   9.432  2.2448 -0.8188  1.8884
23284SOL    HW271294   7.448   7.399   9.534 -0.2724 -0.0131  0.8102
23285SOL     OW71295   1.996   5.170   7.371 -0.1654  0.3478  0.7436
23285SOL    HW171296   1.921   5.228   7.379  0.4402  1.3711 -0.6647
23285SOL    HW271297   2.072   5.228   7.378  0.4647 -0.3887  0.1641
23286SOL     OW71298   1.307   3.073   9.855  0.6210 -0.7049 -0.5839
23286SOL    HW171299   1.251   2.996   9.852 -1.7748  0.8484  0.9336
23286SOL    HW271300   1.272   3.130   9.786 -1.3868  1.2369  1.8253
23287SOL     OW71301   6.060   0.040  12.224 -0.2700  0.0063 -0.1680
23287SOL    HW171302   5.988   0.100  12.242 -0.0291  0.2358  0.0232
23287SOL    HW271303   6.093   0.015  12.311  0.3086  0.4143 -0.2713
23288SOL     OW71304   4.533   5.563   5.786  0.3457  0.3934 -0.1616
23288SOL    HW171305   4.439   5.548   5.798  0.8295 -1.6497  1.7208
23288SOL    HW271306   4.554   5.522   5.702  0.0847 -2.3133  0.9941
23289SOL     OW71307   1.403   3.941   0.034 -0.2783 -0.5547 -0.3655
23289SOL    HW171308   1.357   3.940   0.118 -0.1316  2.0897 -0.1719
23289SOL    HW271309   1.388   4.029  -0.001  1.5591 -0.8295 -2.0368
23290SOL     OW71310   2.633   3.499   4.541  0.3773  0.1419 -0.0052
23290SOL    HW171311   2.719   3.467   4.511  1.0706  0.5439  1.4742
23290SOL    HW271312   2.576   3.422   4.534  1.3345 -0.6724  0.8039
23291SOL     OW71313   7.869   0.631   6.105 -0.1280 -0.1653  0.2756
23291SOL    HW171314   7.958   0.605   6.082 -0.1530  0.2572 -0.3422
23291SOL    HW271315   7.814   0.582   6.045 -0.3019 -0.2836  0.5315
23292SOL     OW71316   5.873   5.852   8.496 -0.9620 -0.0135  0.3025
23292SOL    HW171317   5.786   5.891   8.506 -0.4431  1.1303  0.5373
23292SOL    HW271318   5.926   5.921   8.457  0.5638  0.3961  2.8212
23293SOL     OW71319   5.626   7.952  12.330  0.2993 -0.4246  0.5974
23293SOL    HW171320   5.589   7.894  12.397  0.4190 -0.6723  0.4505
23293SOL    HW271321   5.705   7.988  12.371  1.9776 -2.7469 -0.3760
23294SOL     OW71322   6.599   7.108   3.578 -0.1566  0.2238 -0.2335
23294SOL    HW171323   6.591   7.178   3.643 -0.0527  0.9062 -0.9360
23294SOL    HW271324   6.607   7.154   3.494  3.2148 -0.4868 -0.4534
23295SOL     OW71325   7.322   0.573   3.304 -0.1063 -0.6318  0.5567
23295SOL    HW171326   7.310   0.641   3.237  0.2884 -1.0274  0.0734
23295SOL    HW271327   7.276   0.497   3.269 -1.4648 -0.3199  1.5906
23296SOL     OW71328   6.384   1.448   7.373 -0.7860  0.3438 -0.3986
23296SOL    HW171329   6.309   1.416   7.423 -1.5090  0.3065 -1.4910
23296SOL    HW271330   6.433   1.368   7.352  0.1874  0.4568  1.2411
23297SOL     OW71331   3.201   2.704   9.690 -0.3524 -0.3570  0.0492
23297SOL    HW171332   3.228   2.707   9.781  0.2856 -1.6277 -0.0615
23297SOL    HW271333   3.146   2.626   9.684 -0.5204 -0.1979 -0.6132
23298SOL     OW71334   4.387   6.249  11.614  0.1742 -0.3211 -0.4885
23298SOL    HW171335   4.363   6.204  11.532 -1.4673 -2.2131  0.9202
23298SOL    HW271336   4.362   6.187  11.683  4.1242 -0.0329  1.4379
23299SOL     OW71337   5.167   6.748   5.058 -0.2372  0.3246 -0.5015
23299SOL    HW171338   5.150   6.724   4.967  0.5318  1.2446 -0.9085
23299SOL    HW271339   5.152   6.668   5.108 -1.3857 -0.0116 -1.3456
23300SOL     OW71340   4.921   5.223  10.338  0.0835 -0.5009 -0.7405
23300SOL    HW171341   4.985   5.159  10.307  0.1065 -0.5015 -0.6930
23300SOL    HW271342   4.842   5.205  10.288 -0.0978 -0.9689 -0.2888
23301SOL     OW71343   7.039   4.170   5.658 -0.0613 -0.5709 -0.1204
23301SOL    HW171344   7.072   4.251   5.698  1.3759 -0.3815 -1.5841
23301SOL    HW271345   6.956   4.196   5.617 -0.5370 -0.2971  0.9846
23302SOL     OW71346   5.362   4.840   9.141  0.3519  0.0395  0.5844
23302SOL    HW171347   5.422   4.908   9.171 -1.1403  0.7415  2.1007
23302SOL    HW271348   5.299   4.887   9.087  0.9011 -0.6354 -0.6915
23303SOL     OW71349   3.296   4.781   3.381 -0.2676  0.7669  0.0628
23303SOL    HW171350   3.226   4.814   3.324 -0.8362 -0.2566  0.1360
23303SOL    HW271351   3.253   4.770   3.466  0.1217  0.6204  0.2416
23304SOL     OW71352   3.880   4.133   6.743  0.3392  0.0963 -0.0698
23304SOL    HW171353   3.956   4.146   6.686  0.8511 -0.0801  0.5518
23304SOL    HW271354   3.853   4.221   6.768  0.9528  0.1318  0.4860
23305SOL     OW71355   5.295   2.731   8.958 -0.0100  0.2825  0.2333
23305SOL    HW171356   5.364   2.673   8.924 -0.1341  1.6946 -2.7471
23305SOL    HW271357   5.213   2.686   8.936 -0.0909  1.1997 -1.4836
23306SOL     OW71358   2.956   1.562   8.693  0.5018  0.1802 -0.6940
23306SOL    HW171359   2.871   1.599   8.667  1.0262  1.1748 -1.0407
23306SOL    HW271360   2.983   1.615   8.768  1.3838  0.6979 -1.3578
23307SOL     OW71361   5.864   6.445   8.868 -0.1950  0.0086 -0.1698
23307SOL    HW171362   5.953   6.462   8.898  0.0796 -1.2284 -0.2270
23307SOL    HW271363   5.866   6.462   8.774  0.5513 -2.0402 -0.5598
23308SOL     OW71364   7.181   5.181   8.047 -0.0386  1.1114  0.3783
23308SOL    HW171365   7.127   5.201   7.971  0.4148  1.0173  0.0258
23308SOL    HW271366   7.262   5.145   8.010  0.1978  1.0973  0.9020
23309SOL     OW71367   4.875   3.246   3.984  0.7921  0.4792  0.2608
23309SOL    HW171368   4.810   3.176   3.980  1.0975  0.2400 -0.7919
23309SOL    HW271369   4.960   3.201   3.978  1.0460  0.8220  1.1666
23310SOL     OW71370   3.771   3.210  10.197 -0.3414  0.4481 -0.1480
23310SOL    HW171371   3.754   3.117  10.183  0.6509  0.5115 -2.2020
23310SOL    HW271372   3.688   3.244  10.232 -0.5800 -1.2436  1.0979
23311SOL     OW71373   1.392   2.790   0.254  0.1093  0.1452 -0.9031
23311SOL    HW171374   1.387   2.696   0.240 -0.4176  0.0005  0.1976
23311SOL    HW271375   1.452   2.801   0.328  0.7875  0.7273 -1.5233
23312SOL     OW71376   0.580   0.978   1.178  0.7431 -0.1207  0.4652
23312SOL    HW171377   0.544   1.015   1.258  1.0376  1.1343  0.0475
23312SOL    HW271378   0.675   0.985   1.189  0.7885 -0.1402  0.0987
23313SOL     OW71379   0.226   4.846   7.816  0.4404 -0.5475  0.1321
23313SOL    HW171380   0.260   4.935   7.810  0.4874 -0.5995 -0.4363
23313SOL    HW271381   0.201   4.836   7.908  1.2046 -0.2350  0.3813
23314SOL     OW71382   7.216   5.991   7.670  0.1200  0.2731  0.3513
23314SOL    HW171383   7.290   5.935   7.695 -0.1452  0.2771  1.1856
23314SOL    HW271384   7.207   5.979   7.576  0.9264 -0.0444  0.3078
23315SOL     OW71385   0.246   2.225  10.212 -0.2935 -0.2858  0.0700
23315SOL    HW171386   0.244   2.151  10.151  2.3721 -1.1868  0.9138
23315SOL    HW271387   0.296   2.292  10.167  0.2778 -0.3486  0.5811
23316SOL     OW71388   0.495   2.801   2.307 -0.4822  0.0898 -0.0405
23316SOL    HW171389   0.542   2.743   2.247 -0.8301  0.8768 -1.1036
23316SOL    HW271390   0.425   2.840   2.254 -1.8628 -0.4623  1.3146
23317SOL     OW71391   3.668   1.987   2.123  0.6214 -0.3162  0.1869
23317SOL    HW171392   3.690   2.048   2.052 -0.8276  0.4233  0.3258
23317SOL    HW271393   3.748   1.937   2.138  1.0118 -0.3806 -1.8499
23318SOL     OW71394   4.154   5.957   3.716 -0.5589  0.7623 -0.0411
23318SOL    HW171395   4.132   6.032   3.771  0.2637 -0.1954  1.6424
23318SOL    HW271396   4.146   5.881   3.773 -0.1050 -0.3277 -1.3613
23319SOL     OW71397   1.685   4.668   5.850  0.0678 -0.0300  0.0439
23319SOL    HW171398   1.653   4.621   5.927  1.9572 -1.7090 -0.1221
23319SOL    HW271399   1.779   4.676   5.863  0.4438 -0.3122 -2.0571
23320SOL     OW71400   5.641   7.894   9.462 -0.2777  0.1987 -0.1470
23320SOL    HW171401   5.612   7.890   9.553 -0.4901  0.3315 -0.2095
23320SOL    HW271402   5.732   7.865   9.465 -0.7616 -1.4137 -0.1201
23321SOL     OW71403   6.772   4.443   7.429  0.6738 -0.3450  0.7847
23321SOL    HW171404   6.727   4.359   7.428 -0.0034  0.0058  0.9952
23321SOL    HW271405   6.827   4.442   7.351 -0.4073 -0.4260 -0.0028
23322SOL     OW71406   7.476   1.729  11.199  0.8108  0.0394 -0.2956
23322SOL    HW171407   7.554   1.700  11.152  1.9436  2.0188  0.2743
23322SOL    HW271408   7.408   1.667  11.172  2.2564 -0.9924 -1.7722
23323SOL     OW71409   0.464   0.074   0.421  0.1072 -0.7225  0.4791
23323SOL    HW171410   0.402   0.118   0.362  0.3703 -2.5714 -1.3261
23323SOL    HW271411   0.415  -0.001   0.456  0.2963 -0.2506  1.7837
23324SOL     OW71412   4.477   2.762   6.076  0.0380 -0.4697  0.2063
23324SOL    HW171413   4.480   2.685   6.019 -1.8533  0.3186 -1.0664
23324SOL    HW271414   4.514   2.833   6.024  0.3245 -0.1865  0.7843
23325SOL     OW71415   3.873   3.457   6.714 -0.2019  0.3823  0.0083
23325SOL    HW171416   3.919   3.480   6.634  0.2680  0.6823  0.3550
23325SOL    HW271417   3.801   3.401   6.686  1.2774 -1.4067 -0.4169
23326SOL     OW71418   7.399   7.300   6.728 -0.2090 -0.1185  0.0961
23326SOL    HW171419   7.397   7.298   6.824  0.5756  0.4163  0.1387
23326SOL    HW271420   7.481   7.257   6.705 -0.0390  0.4071 -0.3036
23327SOL     OW71421   5.796   3.936  11.662  0.3205 -0.5416  0.5285
23327SOL    HW171422   5.862   4.005  11.655  1.0270 -1.3624 -1.8255
23327SOL    HW271423   5.846   3.859  11.690 -0.1926 -0.4991  1.6083
23328SOL     OW71424   0.549   4.981   3.120  0.2473 -0.1224 -0.2174
23328SOL    HW171425   0.480   4.925   3.154 -0.5082  0.6117 -0.5051
23328SOL    HW271426   0.562   5.048   3.188  0.4489 -0.0718 -0.3036
23329SOL     OW71427   6.443   5.556   2.567  0.7232  0.6446  0.0196
23329SOL    HW171428   6.375   5.541   2.501  0.4988 -0.6754  0.5026
23329SOL    HW271429   6.398   5.604   2.637 -0.7352 -2.8748  1.7858
23330SOL     OW71430   4.776   7.022   6.721 -0.3983  0.6417  0.4046
23330SOL    HW171431   4.746   6.932   6.736 -0.2850  0.5991  0.3734
23330SOL    HW271432   4.812   7.021   6.632  0.0239  0.6073  0.5747
23331SOL     OW71433   0.503   5.895   7.932 -0.2666 -0.4192 -0.8994
23331SOL    HW171434   0.439   5.869   7.998 -1.0380 -0.8486 -1.7925
23331SOL    HW271435   0.538   5.813   7.898  1.0275 -0.1905 -0.1968
23332SOL     OW71436   6.522   7.337   5.913  0.2865  0.0253 -0.4533
23332SOL    HW171437   6.574   7.416   5.901 -1.2369  0.8055 -2.3760
23332SOL    HW271438   6.499   7.309   5.824 -2.9835  0.0628  0.2412
23333SOL     OW71439   2.921   6.499   2.249 -0.1268 -0.9703 -0.6072
23333SOL    HW171440   2.913   6.437   2.176 -0.6625 -2.2252  0.4647
23333SOL    HW271441   3.014   6.497   2.272 -0.2111 -1.7648 -0.2855
23334SOL     OW71442   4.616   5.373  12.275  0.5110  0.1081 -0.4636
23334SOL    HW171443   4.625   5.329  12.360 -1.3499 -0.4849 -0.5255
23334SOL    HW271444   4.615   5.301  12.212  1.4309  0.5217 -0.9662
23335SOL     OW71445   7.901   0.295   8.301 -0.0006  0.3822  0.3959
23335SOL    HW171446   7.978   0.238   8.294 -0.3477 -0.0165 -0.2924
23335SOL    HW271447   7.938   0.383   8.310  0.5489  0.2668 -0.5237
23336SOL     OW71448   6.808   4.002   6.903 -0.2174 -0.0028  0.0373
23336SOL    HW171449   6.741   4.020   6.969  0.4549 -1.6662  1.2450
23336SOL    HW271450   6.761   3.998   6.820 -0.9563  3.1485  0.1589
23337SOL     OW71451   0.856   1.855   9.409  0.1805 -0.4234  0.1192
23337SOL    HW171452   0.876   1.947   9.393  2.4026 -0.4048  2.3418
23337SOL    HW271453   0.854   1.847   9.505 -1.0920 -2.4781 -0.0153
23338SOL     OW71454   5.933   3.471   0.299 -0.3723 -0.6323 -0.2940
23338SOL    HW171455   5.894   3.476   0.211  0.2751  0.7999 -0.5278
23338SOL    HW271456   5.924   3.560   0.334  2.6450 -0.1740 -0.3857
23339SOL     OW71457   1.202   5.722  10.440  0.6377  0.1328  0.0003
23339SOL    HW171458   1.150   5.654  10.397 -0.6301  0.5730  0.7775
23339SOL    HW271459   1.231   5.682  10.522  0.0832  0.4215  0.3504
23340SOL     OW71460   6.302   5.607   5.529  0.1787 -0.0389 -0.0527
23340SOL    HW171461   6.259   5.654   5.600 -0.4325 -2.7557  1.4999
23340SOL    HW271462   6.236   5.606   5.458  0.6004  2.2246 -0.5598
23341SOL     OW71463   1.761   0.294   2.930 -0.3573  0.1384 -0.5692
23341SOL    HW171464   1.793   0.309   3.019  3.0953  2.6776 -2.0127
23341SOL    HW271465   1.797   0.210   2.905 -1.1104 -0.4576  0.2451
23342SOL     OW71466   0.315   6.474   8.314  0.2978 -0.3805  0.0424
23342SOL    HW171467   0.342   6.451   8.403  4.9984  0.6298 -0.8596
23342SOL    HW271468   0.343   6.399   8.261 -3.3120 -1.4194 -0.7054
23343SOL     OW71469   5.429   0.572   7.653  0.3457 -0.5598 -0.3169
23343SOL    HW171470   5.446   0.654   7.700  1.4705  0.5782 -2.5130
23343SOL    HW271471   5.368   0.524   7.708  0.8979  1.0464  1.8184
23344SOL     OW71472   5.410   0.963   5.295 -0.4661 -0.4089 -0.1448
23344SOL    HW171473   5.492   0.917   5.275  1.1609  1.3709  1.9500
23344SOL    HW271474   5.438   1.049   5.327 -3.2996  1.5962 -2.5255
23345SOL     OW71475   1.050   6.381   5.104  0.2054  0.1799 -0.1151
23345SOL    HW171476   0.989   6.447   5.071 -1.2929 -0.8766  0.4308
23345SOL    HW271477   1.106   6.361   5.029  0.2730  1.5840 -0.4688
23346SOL     OW71478   4.489   7.780   2.347 -0.1170  0.7952  0.1675
23346SOL    HW171479   4.402   7.797   2.383  0.8280  2.3761  1.9277
23346SOL    HW271480   4.544   7.848   2.386  1.8757 -0.0522 -1.0246
23347SOL     OW71481   2.317   3.945   5.631 -0.0675  0.2202  0.0370
23347SOL    HW171482   2.380   3.953   5.703  1.1781  0.0169 -0.9961
23347SOL    HW271483   2.286   3.855   5.637 -3.1925  1.2749  2.8379
23348SOL     OW71484   4.498   6.738   3.922  0.6292  0.1613 -0.2444
23348SOL    HW171485   4.507   6.738   4.018  3.3602  0.3586 -0.4114
23348SOL    HW271486   4.561   6.803   3.892 -1.1389  1.0993 -2.1836
23349SOL     OW71487   7.276   2.629   2.573 -0.3541  0.2715  0.7498
23349SOL    HW171488   7.201   2.642   2.631 -1.3185  0.6222 -0.5293
23349SOL    HW271489   7.351   2.621   2.632 -1.5151 -1.1279  2.1131
23350SOL     OW71490   6.697   3.653   4.422 -0.4478 -0.5257 -0.0860
23350SOL    HW171491   6.615   3.609   4.401 -0.2507  0.3660 -3.0929
23350SOL    HW271492   6.679   3.746   4.407  0.2001  0.1202  2.5707
23351SOL     OW71493   5.373   1.267   3.406 -0.9012  0.0722  0.1182
23351SOL    HW171494   5.309   1.216   3.357  1.7265 -1.9081 -1.5028
23351SOL    HW271495   5.436   1.297   3.340  0.0272  1.7080  1.6569
23352SOL     OW71496   5.812   6.634   2.979 -0.1318  0.0248  0.3877
23352SOL    HW171497   5.785   6.542   2.974 -1.7081  0.4609  0.3721
23352SOL    HW271498   5.908   6.630   2.982 -0.0601 -1.5346 -1.6403
23353SOL     OW71499   7.729   6.648   1.237 -0.7937  0.5003  0.2382
23353SOL    HW171500   7.741   6.718   1.301 -2.1917  1.3115 -0.3310
23353SOL    HW271501   7.816   6.635   1.198 -0.4785  1.8299  0.4615
23354SOL     OW71502   6.629   4.505  10.576 -0.0220  0.1385 -0.0377
23354SOL    HW171503   6.714   4.465  10.557  0.0724  0.8105 -1.1753
23354SOL    HW271504   6.600   4.465  10.658  1.2108 -0.3813  0.1557
23355SOL     OW71505   4.646   0.186   6.124  0.2419  0.4639  0.3275
23355SOL    HW171506   4.606   0.101   6.142 -2.0051  1.4768  0.4068
23355SOL    HW271507   4.657   0.226   6.210  1.3146  0.2793  0.2915
23356SOL     OW71508   4.427   3.632   2.966 -0.2724  0.0656 -0.0059
23356SOL    HW171509   4.453   3.565   2.902  1.0132 -0.5950  1.1285
23356SOL    HW271510   4.449   3.715   2.924  0.3121 -0.3390 -0.5321
23357SOL     OW71511   4.117   5.250   9.496 -0.2573  0.2995 -0.0324
23357SOL    HW171512   4.117   5.297   9.413 -0.7121  1.5267  0.6461
23357SOL    HW271513   4.129   5.317   9.562 -0.4363 -0.5965  0.9436
23358SOL     OW71514   2.790   5.204  10.839 -0.1550 -0.2102 -0.0477
23358SOL    HW171515   2.884   5.190  10.852 -0.0055  1.0957  0.4743
23358SOL    HW271516   2.749   5.125  10.875  0.7799 -1.5851 -1.8537
23359SOL     OW71517   6.198   6.393   3.646 -0.8007  0.2400  0.3899
23359SOL    HW171518   6.161   6.337   3.578 -2.1017  0.8785  0.5388
23359SOL    HW271519   6.143   6.472   3.645  0.7446  1.3816  0.4200
23360SOL     OW71520   1.294   2.084   3.455  0.6630  1.1753 -0.3105
23360SOL    HW171521   1.266   2.085   3.546 -0.0073  1.1137 -0.5175
23360SOL    HW271522   1.293   2.177   3.429 -0.1172  1.0995 -0.5544
23361SOL     OW71523   0.518   1.731   5.008  0.1379 -0.0036 -0.0057
23361SOL    HW171524   0.423   1.730   5.009  0.1181  0.8566 -0.2595
23361SOL    HW271525   0.541   1.820   4.981  1.0248  0.9793  3.5001
23362SOL     OW71526   0.460   3.069   3.817 -0.5663  0.0248 -0.0821
23362SOL    HW171527   0.413   3.149   3.839  0.0268  1.1193 -2.4092
23362SOL    HW271528   0.445   3.011   3.890 -3.0255  1.4005  0.6016
23363SOL     OW71529   6.684   5.957  11.456 -0.0015  0.7033 -0.0185
23363SOL    HW171530   6.663   5.987  11.544  0.1183 -0.7588  0.5346
23363SOL    HW271531   6.600   5.956  11.410 -0.4387 -0.6511  0.7697
23364SOL     OW71532   4.409   5.597   1.457  0.1578  0.0145 -0.0553
23364SOL    HW171533   4.400   5.519   1.402  0.4018  0.9786 -1.5515
23364SOL    HW271534   4.319   5.630   1.464  0.2015  0.2231 -0.4193
23365SOL     OW71535   2.505   2.956   8.559 -0.3685 -0.3120 -0.1747
23365SOL    HW171536   2.517   3.035   8.612 -2.3451 -0.4090  0.4999
23365SOL    HW271537   2.557   2.972   8.480  0.8417  0.8044  0.8041
23366SOL     OW71538   3.150   3.136   5.521  0.3779 -0.0073  0.0267
23366SOL    HW171539   3.113   3.086   5.448  3.1250 -2.3014  0.0313
23366SOL    HW271540   3.103   3.105   5.598  0.4416 -0.8520 -0.2686
23367SOL     OW71541   7.038   1.471   3.914 -0.3428  0.3515 -0.3563
23367SOL    HW171542   7.120   1.471   3.964 -0.9571 -0.2230  0.6914
23367SOL    HW271543   7.063   1.503   3.827  1.1200 -0.4837 -0.2840
23368SOL     OW71544   1.777   5.741   4.483  0.0281  0.4667  0.5280
23368SOL    HW171545   1.763   5.689   4.561 -0.1381 -0.8011 -0.3197
23368SOL    HW271546   1.837   5.690   4.429 -0.7300  0.7660 -0.6633
23369SOL     OW71547   5.337   4.419   9.770 -0.3018  0.4974 -0.0765
23369SOL    HW171548   5.382   4.346   9.812  1.4258  0.9692 -1.0353
23369SOL    HW271549   5.369   4.497   9.817  0.4339  0.8892 -1.1769
23370SOL     OW71550   4.124   7.575   6.160 -0.9524  1.1318  0.0277
23370SOL    HW171551   4.189   7.645   6.163  0.1679  0.1044  0.8835
23370SOL    HW271552   4.101   7.559   6.252 -0.6496 -0.0821 -0.0876
23371SOL     OW71553   5.584   3.305  10.897 -0.1133 -0.6678 -0.0082
23371SOL    HW171554   5.666   3.263  10.925  0.6041  0.7133  0.0543
23371SOL    HW271555   5.599   3.399  10.913 -1.8188 -0.4154  0.2572
23372SOL     OW71556   5.768   3.201   1.917 -0.0847  0.5314  0.3094
23372SOL    HW171557   5.749   3.158   2.001  0.8849 -0.7286 -0.0806
23372SOL    HW271558   5.846   3.156   1.885  0.6601  2.2419 -0.3983
23373SOL     OW71559   5.151   5.517   9.411 -0.0531  0.1521 -0.1876
23373SOL    HW171560   5.140   5.448   9.346  0.8817 -1.0146  0.8434
23373SOL    HW271561   5.218   5.484   9.470 -1.1921  0.9546  1.6543
23374SOL     OW71562   3.290   0.783   7.283  0.0674 -0.0661  0.1073
23374SOL    HW171563   3.376   0.786   7.325 -0.1299  1.8373  0.4849
23374SOL    HW271564   3.228   0.803   7.353 -0.3104  2.5802 -0.8499
23375SOL     OW71565   6.147   1.388   1.708 -0.1128 -0.2285 -0.2410
23375SOL    HW171566   6.070   1.394   1.765  1.2402 -0.6289  1.7133
23375SOL    HW271567   6.114   1.411   1.621 -1.4920  5.0823  1.2620
23376SOL     OW71568   7.772   5.039   3.718 -0.1464  0.3144 -0.5499
23376SOL    HW171569   7.677   5.026   3.711 -0.3837  2.1134 -1.1368
23376SOL    HW271570   7.787   5.057   3.811 -0.5411  1.0958 -0.6334
23377SOL     OW71571   6.061   4.685   4.770  0.4398 -0.8143 -0.1693
23377SOL    HW171572   6.134   4.734   4.732  0.9886 -1.1804  0.3784
23377SOL    HW271573   5.992   4.690   4.704  0.3331  1.0193  0.0519
23378SOL     OW71574   5.471   6.160   8.986 -0.5740 -0.0058 -0.5007
23378SOL    HW171575   5.484   6.079   9.035  2.0529  0.3674 -0.4188
23378SOL    HW271576   5.517   6.226   9.037 -0.6815  1.0696 -1.7460
23379SOL     OW71577   7.523   7.897   5.914  0.3220  0.1957  0.1011
23379SOL    HW171578   7.451   7.958   5.898  0.5981  0.5494  0.1704
23379SOL    HW271579   7.564   7.929   5.995  1.4686  0.9104 -0.7283
23380SOL     OW71580   6.231   2.692   1.018  0.1419 -0.6687 -0.3326
23380SOL    HW171581   6.273   2.606   1.025  0.7952 -0.4256 -1.0337
23380SOL    HW271582   6.138   2.672   1.008  0.0031 -1.2068  1.6004
23381SOL     OW71583   7.026   0.489   8.728  0.2547  0.4926  0.1153
23381SOL    HW171584   7.052   0.572   8.769 -1.7999  0.9397  0.6537
23381SOL    HW271585   7.078   0.484   8.648  2.3299  0.9880  1.3714
23382SOL     OW71586   0.701   2.377   4.281  0.3578  0.0538  0.1293
23382SOL    HW171587   0.613   2.343   4.267  0.5321 -0.4735  0.3161
23382SOL    HW271588   0.689   2.453   4.337  0.0546 -0.2156  0.4276
23383SOL     OW71589   6.253   2.535   2.091  0.1722  0.0515 -0.0423
23383SOL    HW171590   6.176   2.526   2.147 -1.0828  0.3267 -1.6295
23383SOL    HW271591   6.228   2.491   2.010  0.7408  2.1599 -1.4468
23384SOL     OW71592   6.732   3.935   4.366 -0.1616 -0.3492  0.4821
23384SOL    HW171593   6.764   3.952   4.277 -0.7223 -0.2056  0.3039
23384SOL    HW271594   6.718   4.021   4.404 -0.3093 -0.4099  0.5665
23385SOL     OW71595   4.829   2.586   2.837  0.2623  0.6240 -0.0171
23385SOL    HW171596   4.852   2.512   2.781 -1.3164  0.4923 -0.5442
23385SOL    HW271597   4.736   2.601   2.820  0.0347  1.3507  1.6955
23386SOL     OW71598   0.657   5.724   0.091 -0.2129  0.1075  0.0147
23386SOL    HW171599   0.645   5.637   0.052 -0.9575  0.2666 -0.1210
23386SOL    HW271600   0.570   5.763   0.091  0.1254  0.8939 -0.0006
23387SOL     OW71601   2.322   2.763   5.936 -0.0481 -0.1090 -0.0062
23387SOL    HW171602   2.288   2.806   6.014  1.0643 -0.1384  0.5098
23387SOL    HW271603   2.276   2.679   5.932 -1.5166  0.6735 -0.4757
23388SOL     OW71604   2.294   7.726   0.811  0.3590 -1.1141  0.4199
23388SOL    HW171605   2.211   7.716   0.857 -0.4301  2.1502 -0.0458
23388SOL    HW271606   2.334   7.639   0.814 -2.9371 -2.7636  0.8418
23389SOL     OW71607   5.086   0.495   4.262  0.4294 -0.1382 -0.0472
23389SOL    HW171608   5.020   0.556   4.296  0.3446 -0.7178  0.8559
23389SOL    HW271609   5.105   0.528   4.174  1.6204  2.1911  0.9952
23390SOL     OW71610   6.213   7.828   7.671 -0.3829  0.1482 -0.1340
23390SOL    HW171611   6.289   7.771   7.685 -0.6829  0.2057  2.0511
23390SOL    HW271612   6.183   7.806   7.583  1.3358 -0.8552 -0.5312
23391SOL     OW71613   6.795   7.423   2.882 -0.3961  0.2225 -0.6798
23391SOL    HW171614   6.820   7.436   2.973  0.6107 -1.1588 -0.7348
23391SOL    HW271615   6.700   7.425   2.883 -0.4421 -0.8886  0.6042
23392SOL     OW71616   3.481   3.418   1.946 -0.0507 -0.2097 -0.1118
23392SOL    HW171617   3.449   3.328   1.952  0.9526 -0.5498  0.4930
23392SOL    HW271618   3.576   3.410   1.959  0.1852  0.8303 -1.0410
23393SOL     OW71619   3.716   4.005   3.620  0.1978 -0.0672 -0.1207
23393SOL    HW171620   3.657   4.029   3.692  0.7394 -0.6636  0.5309
23393SOL    HW271621   3.754   3.922   3.647  2.5209  1.0417  0.2116
23394SOL     OW71622   5.961   2.819   0.591 -0.4150  0.4054 -0.7067
23394SOL    HW171623   5.984   2.870   0.514 -0.8832 -1.1207 -1.9157
23394SOL    HW271624   6.013   2.739   0.583  0.1205  0.5384  0.9973
23395SOL     OW71625   0.276   3.151  11.478  0.6394  0.2848  0.2705
23395SOL    HW171626   0.245   3.241  11.486 -1.6883 -0.6007  3.2155
23395SOL    HW271627   0.344   3.144  11.546  0.9215 -0.1302 -0.0513
23396SOL     OW71628   4.436   4.446  11.675 -0.0234  0.3750 -0.3841
23396SOL    HW171629   4.506   4.392  11.637 -0.1959  0.0096 -0.1888
23396SOL    HW271630   4.424   4.517  11.612 -1.8187 -1.3726 -2.1683
23397SOL     OW71631   5.092   6.001   8.720 -0.2992 -0.4318  0.0351
23397SOL    HW171632   5.095   6.094   8.742 -1.5625  0.0353 -1.5740
23397SOL    HW271633   4.998   5.981   8.712 -0.0170 -1.4180 -1.2154
23398SOL     OW71634   1.020   1.995   3.124  0.0040  0.4475 -0.4644
23398SOL    HW171635   0.955   2.004   3.054 -0.1469  1.0409 -0.2521
23398SOL    HW271636   0.996   1.913   3.168 -0.1081  0.2485 -0.8875
23399SOL     OW71637   6.665   7.659   6.424 -0.3368 -0.2180  0.0507
23399SOL    HW171638   6.675   7.584   6.483  0.9768  0.5955  0.9240
23399SOL    HW271639   6.648   7.621   6.338  1.2645 -1.5584  0.2914
23400SOL     OW71640   1.203   2.288   1.230  0.4261 -0.1253  0.3019
23400SOL    HW171641   1.221   2.195   1.217  0.6944  0.2001 -2.1846
23400SOL    HW271642   1.137   2.290   1.299  2.2209 -1.9533  2.2210
23401SOL     OW71643   3.215   7.743   4.847  0.4722  0.2946 -0.4774
23401SOL    HW171644   3.141   7.752   4.907  1.3767  1.2170  0.5488
23401SOL    HW271645   3.214   7.651   4.820 -0.3135  0.0076  0.4875
23402SOL     OW71646   1.640   3.170  12.416  0.2324 -0.0532  0.0371
23402SOL    HW171647   1.605   3.227  12.348 -0.6070  1.2039  1.4677
23402SOL    HW271648   1.724   3.209  12.439 -0.5191  0.8762  1.2913
23403SOL     OW71649   4.381   7.165  10.945  0.0556  0.1837  0.2981
23403SOL    HW171650   4.325   7.088  10.948  0.1811  0.0858  0.1174
23403SOL    HW271651   4.329   7.234  10.987  0.2483 -0.1940  1.1983
23404SOL     OW71652   0.238   3.343   9.469 -0.2166  0.3079  0.1855
23404SOL    HW171653   0.193   3.321   9.550  0.1262 -0.2863  0.2242
23404SOL    HW271654   0.259   3.436   9.478  0.5739  0.0636  1.1664
23405SOL     OW71655   3.544   1.108  10.938 -0.2687 -0.6156  0.2756
23405SOL    HW171656   3.635   1.135  10.953 -0.2332 -1.2017  1.1947
23405SOL    HW271657   3.550   1.019  10.903 -0.3469  0.7154 -3.5748
23406SOL     OW71658   4.205   4.631   8.381 -0.2209 -0.4835  0.2587
23406SOL    HW171659   4.267   4.563   8.406  0.3443  0.4820  1.6376
23406SOL    HW271660   4.119   4.593   8.396  0.0935 -0.7705  1.4053
23407SOL     OW71661   5.247   0.353   3.862  0.2861  0.0377 -0.1096
23407SOL    HW171662   5.293   0.331   3.781  0.5541  0.0139  0.0463
23407SOL    HW271663   5.250   0.273   3.914 -0.2538 -0.0741 -0.2447
23408SOL     OW71664   3.101   2.228   4.984  0.2663  0.0481 -0.2402
23408SOL    HW171665   3.048   2.264   5.055  0.0159 -2.3967  0.9124
23408SOL    HW271666   3.143   2.151   5.023  0.2883 -1.2504 -2.6769
23409SOL     OW71667   5.341   0.170  11.503 -0.5570  0.3983 -0.7390
23409SOL    HW171668   5.251   0.137  11.503 -0.3257 -0.4557  1.5550
23409SOL    HW271669   5.389   0.109  11.447 -1.0737 -0.2652 -0.4818
23410SOL     OW71670   5.301   2.987  10.804  0.5028  0.1723 -0.2981
23410SOL    HW171671   5.353   2.936  10.866  1.0651 -0.7706 -1.4953
23410SOL    HW271672   5.355   3.064  10.786  1.4245 -0.6973 -1.3681
23411SOL     OW71673   3.834   4.112   4.480 -0.4229 -0.3867 -0.1732
23411SOL    HW171674   3.903   4.112   4.547  1.7497  1.4312 -2.2078
23411SOL    HW271675   3.819   4.020   4.460  0.1013 -0.8875  1.5749
23412SOL     OW71676   2.518   6.278   7.929 -0.0676  1.2113 -0.5804
23412SOL    HW171677   2.504   6.222   7.853 -1.3698  0.4018  0.2146
23412SOL    HW271678   2.577   6.229   7.985  1.2739  2.0136 -1.2499
23413SOL     OW71679   4.743   2.436   3.245 -0.2530 -0.2106  0.0186
23413SOL    HW171680   4.663   2.470   3.285  0.6910  0.6370  1.2863
23413SOL    HW271681   4.812   2.458   3.308  0.5034 -4.4865  1.0147
23414SOL     OW71682   5.460   5.418   4.250  0.2535 -0.0202 -0.0546
23414SOL    HW171683   5.509   5.460   4.180  1.1057 -0.2171  0.4092
23414SOL    HW271684   5.422   5.491   4.300  0.9056  0.1777  0.1655
23415SOL     OW71685   4.789   7.248   5.835  0.5597 -0.1403  0.4346
23415SOL    HW171686   4.694   7.240   5.830  0.6555 -1.3570  0.3250
23415SOL    HW271687   4.806   7.341   5.822 -0.6243  0.1173  0.6458
23416SOL     OW71688   3.835   1.983   4.459  0.2086  0.7228  0.0587
23416SOL    HW171689   3.746   1.952   4.443  0.4641  0.0652 -0.1516
23416SOL    HW271690   3.854   1.958   4.549  0.2361  0.7018  0.0476
23417SOL     OW71691   2.202   0.132   7.850 -0.0433 -0.4436 -0.6528
23417SOL    HW171692   2.231   0.049   7.812  0.8038 -1.2048  1.5052
23417SOL    HW271693   2.224   0.125   7.943 -1.8124  1.3882 -0.0195
23418SOL     OW71694   3.667   0.192   8.511  0.1822  0.0185  0.0074
23418SOL    HW171695   3.655   0.132   8.586  2.7188  1.6304  1.8615
23418SOL    HW271696   3.643   0.278   8.545  2.1853  0.9190 -0.7433
23419SOL     OW71697   7.746   2.627   6.404 -0.5212 -0.0927 -0.1274
23419SOL    HW171698   7.817   2.653   6.463 -0.2748 -1.3882  0.1735
23419SOL    HW271699   7.671   2.679   6.433  0.5471  2.2563 -1.2416
23420SOL     OW71700   2.775   2.153   2.486 -0.0911 -0.2084  0.1130
23420SOL    HW171701   2.716   2.086   2.451  0.0316  0.0296 -0.5595
23420SOL    HW271702   2.858   2.108   2.497  0.3166  0.1111 -1.4637
23421SOL     OW71703   6.001   4.694   4.470 -0.0047 -0.0839 -0.0625
23421SOL    HW171704   5.963   4.606   4.469 -1.1602  0.3738  1.2286
23421SOL    HW271705   5.987   4.727   4.381 -1.1350 -0.5611 -0.0785
23422SOL     OW71706   7.288   0.637   2.736  0.0855 -0.8329  0.1961
23422SOL    HW171707   7.203   0.612   2.772 -0.7884 -0.4432 -1.4595
23422SOL    HW271708   7.266   0.694   2.662  1.8264 -0.0396  0.2470
23423SOL     OW71709   1.641   6.389   3.633 -0.1519  0.0054 -0.0160
23423SOL    HW171710   1.585   6.386   3.710  1.1337 -0.4728  0.9470
23423SOL    HW271711   1.674   6.479   3.630 -1.0311  0.3176 -0.6489
23424SOL     OW71712   3.320   4.641   5.444 -0.2899  0.3312  0.1256
23424SOL    HW171713   3.310   4.710   5.378 -0.4247  1.4795  1.3134
23424SOL    HW271714   3.267   4.569   5.410 -1.3956  1.3553 -0.4261
23425SOL     OW71715   0.446   4.556   7.090  0.0402  0.1449 -0.1696
23425SOL    HW171716   0.480   4.570   7.002  1.2980 -0.4199  0.1987
23425SOL    HW271717   0.351   4.553   7.079  0.1124  1.2377 -1.3249
23426SOL     OW71718   4.780   0.517   1.325 -0.1456 -0.0588 -0.1830
23426SOL    HW171719   4.785   0.480   1.237  1.4290 -1.9507  0.6158
23426SOL    HW271720   4.693   0.557   1.329 -0.3087 -0.0494 -2.5191
23427SOL     OW71721   7.522   2.568   8.028 -0.3459  0.1458 -0.0432
23427SOL    HW171722   7.480   2.549   8.112 -0.8566  1.3071 -0.0133
23427SOL    HW271723   7.449   2.586   7.969 -0.0638 -1.8412 -1.0882
23428SOL     OW71724   7.686   4.724   3.601 -0.3084  0.1523  0.5758
23428SOL    HW171725   7.741   4.659   3.642  0.1250  0.7823  1.0106
23428SOL    HW271726   7.652   4.777   3.673 -1.8313 -0.4706  0.3640
23429SOL     OW71727   5.144   3.403   8.325 -0.3476 -0.7707  0.1042
23429SOL    HW171728   5.071   3.444   8.279 -0.5660 -0.4060  0.7608
23429SOL    HW271729   5.217   3.462   8.312 -0.5694 -0.3519  0.7458
23430SOL     OW71730   4.389   2.515   9.299  0.1572  0.2190  0.9921
23430SOL    HW171731   4.318   2.579   9.288 -0.9847 -1.2681 -0.9913
23430SOL    HW271732   4.434   2.514   9.214  0.1340 -1.5674  0.9634
23431SOL     OW71733   5.972   6.096   2.938  0.4710  0.6187  0.4604
23431SOL    HW171734   6.055   6.138   2.962  1.2797 -0.3594 -0.5050
23431SOL    HW271735   5.975   6.088   2.843 -1.3981  1.8503  0.2428
23432SOL     OW71736   2.489   1.987   2.139  0.5894 -0.1314  0.3640
23432SOL    HW171737   2.467   1.960   2.049 -0.2303 -0.1100  0.5481
23432SOL    HW271738   2.495   2.082   2.135 -0.1087 -0.0798  0.4667
23433SOL     OW71739   5.675   6.041   2.887  0.5669 -0.2875  0.1852
23433SOL    HW171740   5.633   5.964   2.926  0.8843  0.0137  1.1726
23433SOL    HW271741   5.762   6.043   2.927  1.9509 -1.4526 -2.5457
23434SOL     OW71742   2.454   1.301   7.129 -0.3560  0.0822 -0.2524
23434SOL    HW171743   2.491   1.225   7.084 -1.2248 -0.5388  0.0374
23434SOL    HW271744   2.362   1.277   7.143 -0.9687  1.6758 -1.2368
23435SOL     OW71745   1.003   3.590   4.416 -0.2711  0.2779  0.4415
23435SOL    HW171746   1.048   3.597   4.331  0.4481  1.6970  0.9117
23435SOL    HW271747   1.055   3.526   4.465 -0.2639  0.0011  0.0751
23436SOL     OW71748   5.570   6.042   6.451  0.2841 -0.1436 -0.1236
23436SOL    HW171749   5.588   5.954   6.483  0.1793 -0.4170 -0.8091
23436SOL    HW271750   5.615   6.047   6.367  0.6281  0.5988  0.0860
23437SOL     OW71751   3.986   4.991   9.575 -0.2036  0.0869 -0.4757
23437SOL    HW171752   4.022   5.074   9.545 -2.3810  0.5065 -2.2198
23437SOL    HW271753   3.986   4.936   9.496 -0.0618 -1.1115  0.3377
23438SOL     OW71754   3.224   1.457   5.397  0.2288 -0.6179 -0.1069
23438SOL    HW171755   3.207   1.386   5.458 -2.0569 -1.0487 -1.1738
23438SOL    HW271756   3.319   1.470   5.402  0.6052 -3.1499  0.7399
23439SOL     OW71757   1.097   6.061   5.397  0.1347  0.2870  0.3047
23439SOL    HW171758   1.038   6.119   5.446  1.3089  1.1943  0.7062
23439SOL    HW271759   1.106   5.984   5.454 -0.5845  0.1706  0.2742
23440SOL     OW71760   1.300   6.648   8.940 -0.0230 -0.1767  0.1086
23440SOL    HW171761   1.284   6.683   8.852  1.9785  0.1632 -0.1741
23440SOL    HW271762   1.377   6.592   8.929 -1.8656 -3.0774  0.9695
23441SOL     OW71763   3.637   2.674   8.665 -0.5308  0.0312 -0.7290
23441SOL    HW171764   3.702   2.729   8.620  0.7018 -0.2630  0.6183
23441SOL    HW271765   3.592   2.735   8.723  0.3928 -0.2181  0.2872
23442SOL     OW71766   0.494   5.990   5.081  0.2235 -0.3217  0.0900
23442SOL    HW171767   0.584   5.959   5.080  0.2870 -0.1531 -1.0956
23442SOL    HW271768   0.449   5.934   5.144  0.8242 -1.3830 -0.3956
23443SOL     OW71769   2.800   5.581   2.528 -0.1544 -0.5253  0.0899
23443SOL    HW171770   2.802   5.593   2.623  0.4907  0.4218 -0.0245
23443SOL    HW271771   2.834   5.664   2.493  0.4589 -1.1857 -0.9347
23444SOL     OW71772   7.925   7.314   8.263  0.2376  0.1823 -0.0702
23444SOL    HW171773   7.918   7.291   8.356  0.5644 -0.5642 -0.2193
23444SOL    HW271774   7.894   7.236   8.217  0.1242  0.5298 -0.5921
23445SOL     OW71775   4.796   3.599   9.219 -0.2376 -0.1896 -0.9159
23445SOL    HW171776   4.808   3.564   9.131 -0.1159 -0.9359 -0.6105
23445SOL    HW271777   4.867   3.561   9.270  0.1128  0.7905 -0.6409
23446SOL     OW71778   4.257   6.564   4.193  0.8397  0.6143  0.3004
23446SOL    HW171779   4.162   6.555   4.202  0.9884 -0.9782  0.6847
23446SOL    HW271780   4.291   6.534   4.277  1.7113  0.3401 -0.1410
23447SOL     OW71781   2.843   2.459   7.279 -0.0976 -0.4727  0.6516
23447SOL    HW171782   2.882   2.515   7.347 -0.8712  2.0451 -0.8403
23447SOL    HW271783   2.750   2.483   7.279 -0.8531 -3.0697  1.0754
23448SOL     OW71784   1.933   7.522   2.340  0.2142  0.5847 -0.6399
23448SOL    HW171785   1.860   7.476   2.299 -1.3945 -0.4430  2.9874
23448SOL    HW271786   1.982   7.454   2.386  0.1515  1.9067  1.5377
23449SOL     OW71787   1.737   7.937   0.444  0.6083 -0.1379 -0.1353
23449SOL    HW171788   1.694   7.955   0.528  2.6718  1.0220  0.7556
23449SOL    HW271789   1.678   7.975   0.379 -0.5386 -0.1156  0.8770
23450SOL     OW71790   0.719   0.223   8.626  0.1284 -0.0072 -0.0133
23450SOL    HW171791   0.727   0.265   8.540 -0.1864 -0.2327 -0.1522
23450SOL    HW271792   0.678   0.138   8.608 -0.8862  0.3706  0.4794
23451SOL     OW71793   1.238   2.109   1.729 -0.1856 -0.1331  0.4224
23451SOL    HW171794   1.193   2.071   1.804  0.6052 -2.2393 -0.0939
23451SOL    HW271795   1.197   2.195   1.717 -3.0113 -1.3079  0.8652
23452SOL     OW71796   1.648   1.386   3.574 -0.4878  0.4205 -0.4904
23452SOL    HW171797   1.642   1.442   3.497  0.4651  1.3007  0.0589
23452SOL    HW271798   1.741   1.373   3.588 -0.5882  1.2473  1.1952
23453SOL     OW71799   2.737   6.783   8.218  0.1211 -0.4450  0.1647
23453SOL    HW171800   2.656   6.754   8.176  0.1882  2.9075 -2.8589
23453SOL    HW271801   2.709   6.845   8.286  0.0828 -0.1267 -0.1349
23454SOL     OW71802   7.190   0.345   5.393 -0.2801  0.0522  0.2183
23454SOL    HW171803   7.209   0.265   5.345 -1.7339 -0.4642  0.4527
23454SOL    HW271804   7.250   0.410   5.357 -0.6083 -0.5861 -1.5395
23455SOL     OW71805   3.402   3.178   6.255  0.1519 -0.2513  0.5208
23455SOL    HW171806   3.416   3.259   6.206 -0.5421 -0.8756 -0.7666
23455SOL    HW271807   3.483   3.166   6.305  0.4334  1.0033  0.3886
23456SOL     OW71808   3.249   4.455   1.974 -0.3529 -0.4890  0.0380
23456SOL    HW171809   3.335   4.413   1.978 -0.0295  0.1601  0.0828
23456SOL    HW271810   3.225   4.468   2.065 -1.0184 -1.6791  0.0535
23457SOL     OW71811   6.847   6.532  11.700  0.2306 -0.0627 -0.0349
23457SOL    HW171812   6.916   6.485  11.655  1.2572  1.2336  0.1245
23457SOL    HW271813   6.870   6.526  11.793 -0.0409  0.1262  0.0464
23458SOL     OW71814   3.788   5.591   0.618 -0.4469  0.0267  0.1273
23458SOL    HW171815   3.736   5.626   0.690 -1.1186  0.6871 -0.6644
23458SOL    HW271816   3.812   5.667   0.565 -1.0509 -0.5774 -1.0510
23459SOL     OW71817   3.215   4.380   0.623 -0.0198 -0.1676  0.0726
23459SOL    HW171818   3.136   4.371   0.569 -0.0091 -0.1537  0.0547
23459SOL    HW271819   3.257   4.294   0.619  0.3629  0.0450 -0.5328
23460SOL     OW71820   1.559   1.082   2.342 -0.1402 -0.4272 -0.3888
23460SOL    HW171821   1.607   1.020   2.397  1.0204  2.1549  1.7597
23460SOL    HW271822   1.621   1.105   2.273  0.4405  0.3068  0.3651
23461SOL     OW71823   4.771   4.141   6.525 -0.5301 -0.0877 -0.1391
23461SOL    HW171824   4.748   4.054   6.558 -0.3302 -0.2519 -0.4207
23461SOL    HW271825   4.693   4.172   6.480  0.4203 -1.5965 -3.0866
23462SOL     OW71826   6.123   6.511   6.785 -0.3924  0.2619 -0.4310
23462SOL    HW171827   6.173   6.545   6.860 -0.7144 -1.6650  0.7066
23462SOL    HW271828   6.036   6.549   6.795 -0.5648 -0.3406  0.4560
23463SOL     OW71829   5.022   7.542   3.694  0.0928  0.0996  0.3312
23463SOL    HW171830   5.093   7.509   3.640  0.4454 -0.5912  1.1959
23463SOL    HW271831   5.026   7.490   3.774 -1.3169  0.1103  0.4427
23464SOL     OW71832   3.824   6.295  11.152 -0.1516 -0.1018 -0.1698
23464SOL    HW171833   3.911   6.269  11.183 -0.4562 -0.0673  0.7489
23464SOL    HW271834   3.776   6.213  11.144 -0.4610 -0.0190  0.6967
23465SOL     OW71835   1.086   1.658   0.150  0.2971  0.4240 -0.4353
23465SOL    HW171836   1.012   1.718   0.147 -0.0218  0.0031 -1.2051
23465SOL    HW271837   1.131   1.670   0.067  0.2797 -0.3387 -0.5661
23466SOL     OW71838   1.503   7.793   5.055  0.1226  0.4583  0.3836
23466SOL    HW171839   1.557   7.844   4.994 -0.2126  0.1130 -0.2147
23466SOL    HW271840   1.415   7.829   5.045  0.1443  0.6873  0.9871
23467SOL     OW71841   2.023   1.740   6.081 -0.2968  0.7631  0.5630
23467SOL    HW171842   1.934   1.776   6.074 -0.4825  0.1802 -0.2714
23467SOL    HW271843   2.024   1.668   6.018  0.6049  0.4173  0.9641
23468SOL     OW71844   6.271   3.777   2.043 -0.4214 -0.4291 -0.3526
23468SOL    HW171845   6.243   3.775   2.135 -0.3224  0.1157 -0.3102
23468SOL    HW271846   6.196   3.741   1.995 -0.7976  0.0655 -0.1423
23469SOL     OW71847   0.547   2.273   5.946  0.1619 -0.3105  0.5208
23469SOL    HW171848   0.527   2.312   6.031 -1.0509 -1.0730  0.6085
23469SOL    HW271849   0.637   2.243   5.954  0.3280  0.3470  1.2534
23470SOL     OW71850   6.671   1.920   7.400  0.0840  0.0053  0.1390
23470SOL    HW171851   6.691   1.831   7.430  1.7032  0.1288 -0.4435
23470SOL    HW271852   6.624   1.959   7.473  0.4783 -0.9358  0.9337
23471SOL     OW71853   5.053   0.265   7.134 -0.5014 -0.0519  0.2529
23471SOL    HW171854   5.045   0.328   7.062 -0.1938 -0.0583  0.2115
23471SOL    HW271855   4.969   0.269   7.179 -0.0482  1.3468  1.0391
23472SOL     OW71856   0.429   6.986   6.571 -0.0802  0.1819 -0.0321
23472SOL    HW171857   0.358   6.955   6.515 -0.1901 -1.3571  0.8902
23472SOL    HW271858   0.413   6.943   6.655  0.9750  1.1764  0.7007
23473SOL     OW71859   6.406   1.322   9.827 -0.1147 -0.5285 -0.1478
23473SOL    HW171860   6.427   1.415   9.840 -1.1913 -0.5305  2.1423
23473SOL    HW271861   6.327   1.323   9.772 -0.5292 -0.0391  0.4444
23474SOL     OW71862   3.738   4.389   5.628  0.1627 -0.1134 -0.0682
23474SOL    HW171863   3.714   4.382   5.721  0.4167 -1.1911 -0.0663
23474SOL    HW271864   3.809   4.325   5.617 -1.4089 -1.7283 -1.4990
23475SOL     OW71865   7.429   7.524   2.782 -0.1713  0.1087 -0.0430
23475SOL    HW171866   7.500   7.550   2.841  1.6889 -2.5018 -0.9567
23475SOL    HW271867   7.373   7.601   2.777  2.6120  2.3486  0.6839
23476SOL     OW71868   2.931   7.234   0.756 -0.1720  0.0210  0.0508
23476SOL    HW171869   2.986   7.213   0.680 -0.4918 -0.3950 -0.0698
23476SOL    HW271870   2.843   7.207   0.730 -0.3667  0.3240  0.3909
23477SOL     OW71871   4.392   1.014   8.406 -0.4994  0.5657 -0.1975
23477SOL    HW171872   4.319   0.952   8.417 -0.8137  1.0037  0.1907
23477SOL    HW271873   4.402   1.054   8.492  1.3162 -0.7030  0.2390
23478SOL     OW71874   6.242   5.198   9.206  0.3841  0.6288 -0.1395
23478SOL    HW171875   6.200   5.225   9.124 -1.3653  2.5213  1.2866
23478SOL    HW271876   6.320   5.253   9.211  0.1311  1.0047 -0.2291
23479SOL     OW71877   1.264   1.488   9.532  0.3859  0.5263 -0.2280
23479SOL    HW171878   1.238   1.468   9.442  0.4065  0.6595 -0.2631
23479SOL    HW271879   1.204   1.436   9.586  1.4035 -0.8336 -0.3292
23480SOL     OW71880   6.921   2.655   0.134 -0.2504  0.5399 -0.7256
23480SOL    HW171881   6.982   2.690   0.069  0.5074 -0.8661 -0.8165
23480SOL    HW271882   6.856   2.607   0.083 -0.0893  0.0794 -0.5080
23481SOL     OW71883   5.316   2.149  11.112 -0.7525 -0.1170  0.6839
23481SOL    HW171884   5.412   2.158  11.115 -0.6138 -0.3922 -1.5943
23481SOL    HW271885   5.284   2.227  11.157  0.5766  1.5844 -1.1283
23482SOL     OW71886   7.530   2.031   2.333 -0.0929  0.6714  0.2656
23482SOL    HW171887   7.563   2.089   2.402  0.3949 -0.6201  1.1473
23482SOL    HW271888   7.446   2.070   2.307  0.4107  2.0015  0.5211
23483SOL     OW71889   4.857   4.754   2.731  0.7594  0.4019 -0.6609
23483SOL    HW171890   4.770   4.744   2.693  0.9553 -3.4765 -0.5376
23483SOL    HW271891   4.906   4.805   2.667 -0.5496 -0.8467 -2.7948
23484SOL     OW71892   7.545   6.492   4.789 -0.0025  0.5012 -0.2802
23484SOL    HW171893   7.475   6.480   4.724 -0.5389  0.5464  0.2789
23484SOL    HW271894   7.617   6.531   4.739  0.5839 -1.8928 -1.4220
23485SOL     OW71895   6.773   7.796   1.106 -0.0607 -0.1873 -0.0643
23485SOL    HW171896   6.860   7.762   1.087  0.0846 -0.6384  1.2969
23485SOL    HW271897   6.767   7.877   1.056  0.2797 -1.2652 -1.9257
23486SOL     OW71898   7.438   7.707   2.139  0.6340  0.2671  0.2256
23486SOL    HW171899   7.431   7.776   2.205  0.4069 -0.1659  0.6593
23486SOL    HW271900   7.398   7.631   2.180  0.7433 -0.0818 -0.3107
23487SOL     OW71901   3.248   0.365  11.981 -0.3520  0.4575 -0.2804
23487SOL    HW171902   3.294   0.281  11.981  0.5396  0.8663  1.8487
23487SOL    HW271903   3.160   0.344  11.949 -0.0978 -1.2523  0.0362
23488SOL     OW71904   4.610   6.676   6.756 -0.2586  0.2067 -0.0535
23488SOL    HW171905   4.583   6.718   6.837 -0.0665  0.6059 -0.1906
23488SOL    HW271906   4.643   6.591   6.783  0.2308  0.5157  0.3471
23489SOL     OW71907   4.704   0.055   4.226 -0.0994 -0.3527 -0.7603
23489SOL    HW171908   4.799   0.056   4.235 -0.0149  0.8523 -1.4667
23489SOL    HW271909   4.679   0.148   4.230 -1.2923 -0.6790 -0.1693
23490SOL     OW71910   2.554   6.667   7.708 -0.0897 -0.1086 -0.0566
23490SOL    HW171911   2.638   6.684   7.665  0.0205 -0.7543 -0.1009
23490SOL    HW271912   2.577   6.626   7.791 -0.3886 -1.0296 -0.4232
23491SOL     OW71913   0.115   3.154   9.858 -0.5245  0.4109  0.1302
23491SOL    HW171914   0.132   3.064   9.830 -0.0029  1.1110 -2.0122
23491SOL    HW271915   0.028   3.151   9.896 -0.3978 -1.0468  0.3809
23492SOL     OW71916   7.942   3.946   1.394  0.0025 -0.0307  0.0750
23492SOL    HW171917   8.019   3.944   1.452  0.3591 -0.5213 -0.4048
23492SOL    HW271918   7.959   4.021   1.336  0.9185 -1.0823 -1.0764
23493SOL     OW71919   2.558   2.009   3.909 -0.0220 -0.0348 -0.7204
23493SOL    HW171920   2.582   1.990   3.818 -0.0890 -1.5788 -0.4359
23493SOL    HW271921   2.637   2.045   3.948  0.4101 -0.6113 -1.0506
23494SOL     OW71922   1.393   2.590   9.535  0.0051 -0.1823  0.2541
23494SOL    HW171923   1.404   2.588   9.630  1.3751  0.2623  0.1329
23494SOL    HW271924   1.365   2.680   9.516 -0.7257 -0.4041  0.2766
23495SOL     OW71925   4.352   1.334   4.207  0.1851 -0.0212  0.0153
23495SOL    HW171926   4.294   1.409   4.199 -0.6081 -0.6227 -0.0003
23495SOL    HW271927   4.421   1.363   4.267 -0.2595  0.6223  0.2286
23496SOL     OW71928   3.859   6.041   1.185 -0.3195 -0.1115 -0.1201
23496SOL    HW171929   3.775   6.088   1.185 -0.4458 -0.3365  0.0036
23496SOL    HW271930   3.894   6.056   1.273 -0.4543 -0.4159 -0.0139
23497SOL     OW71931   7.127   2.507   2.791 -0.1412 -0.1098 -0.0827
23497SOL    HW171932   7.103   2.483   2.881  0.1741  0.2608  0.1077
23497SOL    HW271933   7.166   2.428   2.755  0.1753 -0.1257  0.2779
23498SOL     OW71934   6.706   4.911   0.209 -0.3977  0.1966  0.1739
23498SOL    HW171935   6.681   4.982   0.268  0.8728  0.6565  0.2069
23498SOL    HW271936   6.624   4.880   0.171 -1.0919  0.8330  1.1187
23499SOL     OW71937   2.531   3.112   2.029 -0.0575 -0.7802 -0.4693
23499SOL    HW171938   2.534   3.176   2.101  1.3294 -0.4373 -0.7899
23499SOL    HW271939   2.517   3.165   1.950  2.1879 -0.6708 -0.8742
23500SOL     OW71940   3.361   0.570   7.550 -0.6508  0.2820  0.1509
23500SOL    HW171941   3.278   0.618   7.543 -0.2374  1.1088  0.7644
23500SOL    HW271942   3.427   0.631   7.517 -0.3038 -0.4763 -0.6035
23501SOL     OW71943   4.921   6.973  11.238 -0.1053 -0.3867  0.0083
23501SOL    HW171944   4.850   6.909  11.246 -0.0925 -0.2470  1.8368
23501SOL    HW271945   4.982   6.934  11.176 -1.1669 -1.1052 -0.6203
23502SOL     OW71946   3.191   0.687   3.326  0.5425 -0.6816  0.4241
23502SOL    HW171947   3.116   0.693   3.267  0.7569 -0.0185  0.2109
23502SOL    HW271948   3.251   0.754   3.295  1.6689 -1.8584 -0.0307
23503SOL     OW71949   0.376   5.324  12.151  0.6575 -0.1265  0.1161
23503SOL    HW171950   0.367   5.232  12.129  0.2531  0.2434 -1.3602
23503SOL    HW271951   0.427   5.361  12.079 -2.2489  1.5031 -1.2646
23504SOL     OW71952   1.015   0.253  10.061  0.4024  0.6041 -0.4455
23504SOL    HW171953   1.083   0.276   9.998  0.0217  0.5118 -0.8935
23504SOL    HW271954   0.974   0.337  10.084  1.6943  0.8837  1.0450
23505SOL     OW71955   4.851   7.103   4.229  0.0058  0.0809  0.3152
23505SOL    HW171956   4.922   7.152   4.187  0.9319 -0.7499  0.8730
23505SOL    HW271957   4.827   7.156   4.305 -1.6547  1.5761 -1.1599
23506SOL     OW71958   5.399   0.611   3.117 -0.0411  0.5205 -0.1858
23506SOL    HW171959   5.401   0.521   3.149 -0.1011  0.0005 -1.6094
23506SOL    HW271960   5.310   0.623   3.084  1.0577 -0.2877 -3.7655
23507SOL     OW71961   2.353   7.272   9.082  0.1751 -0.8403 -0.2193
23507SOL    HW171962   2.271   7.282   9.033  0.8865 -0.6247 -1.4259
23507SOL    HW271963   2.406   7.214   9.028  1.8569  1.2051 -0.9149
23508SOL     OW71964   0.408   3.983   7.124  0.0820 -0.1725 -0.5906
23508SOL    HW171965   0.502   3.968   7.128 -0.0812 -0.9745  0.6398
23508SOL    HW271966   0.369   3.898   7.145 -0.9108  0.8423  2.0430
23509SOL     OW71967   0.639   7.852   0.878 -0.4424  0.4447 -0.0835
23509SOL    HW171968   0.664   7.799   0.954  0.3274  0.5429 -0.2578
23509SOL    HW271969   0.702   7.924   0.878 -0.2213  0.2602 -1.0033
23510SOL     OW71970   5.352   6.536   7.321  0.1263  0.0269 -0.2183
23510SOL    HW171971   5.284   6.474   7.348 -0.9297  0.2786 -2.1414
23510SOL    HW271972   5.409   6.486   7.263 -0.3173  0.6347 -1.2019
23511SOL     OW71973   2.937   0.254   0.508 -0.8224 -0.1159 -0.1589
23511SOL    HW171974   2.923   0.308   0.585 -0.4240 -1.7319  1.0942
23511SOL    HW271975   3.008   0.194   0.533  0.1359  0.0789 -2.1952
23512SOL     OW71976   4.368   3.992  10.574  0.0015 -0.2771 -0.1757
23512SOL    HW171977   4.286   4.015  10.618 -0.4136  0.7305 -1.4292
23512SOL    HW271978   4.419   4.073  10.575  2.2271 -1.5146  3.0503
23513SOL     OW71979   2.310   5.362  12.056 -0.1038 -0.4843 -0.0028
23513SOL    HW171980   2.320   5.436  12.116  2.9322 -0.9524  0.2321
23513SOL    HW271981   2.320   5.400  11.968  0.5149 -0.4560  0.0736
23514SOL     OW71982   4.617   2.240   3.962  0.4161  0.1946 -0.5681
23514SOL    HW171983   4.674   2.236   3.886 -0.4810  1.3671 -1.3271
23514SOL    HW271984   4.552   2.307   3.941 -1.9006 -1.7606 -0.2064
23515SOL     OW71985   7.954   0.478   5.540  0.3201 -0.5307 -0.5077
23515SOL    HW171986   7.965   0.559   5.489 -1.5188 -0.3229 -0.6227
23515SOL    HW271987   7.967   0.505   5.631 -0.2823 -0.1096 -0.5460
23516SOL     OW71988   1.642   4.281   1.157 -0.5087  0.1743  0.7704
23516SOL    HW171989   1.622   4.187   1.164  1.5665 -0.3619  0.1036
23516SOL    HW271990   1.636   4.300   1.063 -0.0041  0.4784  0.7959
23517SOL     OW71991   7.415   3.638   3.817  0.3550  0.3892  0.0928
23517SOL    HW171992   7.323   3.633   3.788  0.6918 -2.7335 -0.8555
23517SOL    HW271993   7.464   3.654   3.736  0.8204 -1.2671  0.0138
23518SOL     OW71994   5.104   2.734  10.984  0.2143 -0.9227 -0.1409
23518SOL    HW171995   5.100   2.825  11.016  1.7696 -0.9982  0.3778
23518SOL    HW271996   5.144   2.741  10.898 -1.2345 -0.9944 -0.8487
23519SOL     OW71997   1.296   1.003   3.436  0.1309 -0.1452 -0.4528
23519SOL    HW171998   1.336   1.075   3.387  1.5797 -1.4325 -1.2421
23519SOL    HW271999   1.342   1.004   3.520  0.2776 -0.2483 -0.5305
23520SOL     OW72000   2.763   0.187  11.774 -0.6731 -0.1184  0.2598
23520SOL    HW172001   2.757   0.101  11.816  0.9550 -1.2528 -1.6588
23520SOL    HW272002   2.677   0.202  11.736 -0.8689 -1.0581  0.3227
23521SOL     OW72003   1.235   0.760  10.412  0.0833 -0.0290  0.0230
23521SOL    HW172004   1.248   0.789  10.503  0.9496  0.8063 -0.3486
23521SOL    HW272005   1.177   0.826  10.375 -1.0047 -0.8587  0.1969
23522SOL     OW72006   0.568   3.006   1.714  0.8849  0.5869 -0.1884
23522SOL    HW172007   0.662   3.023   1.717  1.2539 -1.2702  0.3167
23522SOL    HW272008   0.553   2.975   1.625  0.9258  0.0236 -0.0003
23523SOL     OW72009   1.818   0.328   9.701 -0.5526  0.0396 -0.2967
23523SOL    HW172010   1.734   0.314   9.745 -0.0419  0.2267  0.7741
23523SOL    HW272011   1.813   0.418   9.668 -0.0384  0.7794  1.5171
23524SOL     OW72012   2.076   3.183   1.331  0.0474  0.1204 -0.1418
23524SOL    HW172013   2.147   3.209   1.273  1.0136 -0.4945  0.7230
23524SOL    HW272014   2.106   3.100   1.369 -0.7169  0.3148  0.9324
23525SOL     OW72015   6.297   4.413   6.764  0.1022  0.7202 -0.4106
23525SOL    HW172016   6.262   4.501   6.750 -3.2997 -0.7351 -1.9884
23525SOL    HW272017   6.354   4.398   6.689 -0.0241  1.2175 -0.6123
23526SOL     OW72018   4.650   0.939   7.911 -0.3070  0.3754  0.5594
23526SOL    HW172019   4.719   0.880   7.939 -0.2974 -0.0297 -0.2865
23526SOL    HW272020   4.569   0.896   7.939 -0.3296 -0.3164 -0.5051
23527SOL     OW72021   3.524   4.689  10.697 -0.3154  0.1856  0.0075
23527SOL    HW172022   3.461   4.725  10.759  0.2132  2.2487 -0.5690
23527SOL    HW272023   3.581   4.763  10.675  1.3004 -1.2038 -0.7267
23528SOL     OW72024   3.474   7.506   0.597  0.4846  0.3991 -0.4036
23528SOL    HW172025   3.506   7.592   0.624  0.9330  0.0025  0.3507
23528SOL    HW272026   3.474   7.454   0.677  2.0090 -0.8562 -1.1596
23529SOL     OW72027   0.249   5.458   1.758  0.0402 -0.2487  0.6838
23529SOL    HW172028   0.195   5.397   1.807 -1.4806  2.2858  2.4136
23529SOL    HW272029   0.187   5.509   1.706  1.3642 -0.8409 -1.6636
23530SOL     OW72030   4.527   4.172  11.292 -0.2770 -0.6424 -0.7579
23530SOL    HW172031   4.491   4.101  11.239 -1.7492 -0.0176 -0.6232
23530SOL    HW272032   4.600   4.206  11.239  1.2467 -2.9593 -0.3147
23531SOL     OW72033   7.863   4.487   9.804  0.3128 -0.0339 -0.0657
23531SOL    HW172034   7.914   4.558   9.842  0.7379 -0.7440  0.7399
23531SOL    HW272035   7.772   4.509   9.825  0.4094  0.4416 -0.1336
23532SOL     OW72036   5.217   3.963   6.318  0.1999 -0.8121 -0.1750
23532SOL    HW172037   5.231   4.041   6.263 -0.0842  0.4682  1.4933
23532SOL    HW272038   5.286   3.902   6.291  0.1024 -0.2388 -1.9014
23533SOL     OW72039   6.628   6.162   8.615  0.4784 -0.1640  0.2576
23533SOL    HW172040   6.642   6.074   8.583  0.7518 -0.2583  0.6237
23533SOL    HW272041   6.614   6.152   8.709  0.8340  0.2090  0.3568
23534SOL     OW72042   0.692   6.143   3.393 -0.0784  0.1363  0.7164
23534SOL    HW172043   0.771   6.143   3.446  1.1371  0.4372 -1.0006
23534SOL    HW272044   0.658   6.233   3.401  1.5641  0.9719 -1.0093
23535SOL     OW72045   5.103   7.217   0.613 -0.4615  0.3161  0.1805
23535SOL    HW172046   5.073   7.186   0.698 -0.1348  0.1657  0.2421
23535SOL    HW272047   5.047   7.173   0.549 -1.5932  1.4293  0.3642
23536SOL     OW72048   7.236   7.139   7.612  0.2584  0.6201  0.6910
23536SOL    HW172049   7.143   7.118   7.612  0.3764  0.0550 -0.4116
23536SOL    HW272050   7.253   7.172   7.701 -0.8692  0.2313  1.0657
23537SOL     OW72051   3.814   0.284   5.837 -0.0118 -0.1958  0.4639
23537SOL    HW172052   3.866   0.261   5.759  0.9224  0.4201  0.8833
23537SOL    HW272053   3.822   0.379   5.844 -0.1129 -0.2430  1.2978
23538SOL     OW72054   1.016   7.765   8.993 -0.1220  0.1485  0.5396
23538SOL    HW172055   0.927   7.740   8.966  0.2435 -1.4583  0.7187
23538SOL    HW272056   1.007   7.856   9.023 -1.6128  0.1607  0.1435
23539SOL     OW72057   5.638   1.224   7.936  0.7014  0.6739 -0.2965
23539SOL    HW172058   5.694   1.153   7.967  0.3154  0.8798  0.8950
23539SOL    HW272059   5.615   1.198   7.847 -1.9917 -2.3278  1.0805
23540SOL     OW72060   6.980   7.662  10.943  0.2485  0.6870  0.4741
23540SOL    HW172061   7.051   7.641  11.004  0.7693  0.9446 -0.0376
23540SOL    HW272062   6.905   7.681  10.999  0.6275  0.5741  1.0257
23541SOL     OW72063   0.397   7.835   2.145  0.2012  0.4229 -0.0086
23541SOL    HW172064   0.451   7.772   2.098 -0.5885 -0.6582  0.4733
23541SOL    HW272065   0.456   7.906   2.167  0.5983  1.0010 -2.6320
23542SOL     OW72066   6.121   6.290  10.612 -0.2345  0.1342 -0.2327
23542SOL    HW172067   6.201   6.341  10.618 -0.4204  0.3490  0.6751
23542SOL    HW272068   6.052   6.355  10.597 -0.8171  0.5560  3.3214
23543SOL     OW72069   0.077   6.203   8.652  0.3689 -0.1504 -0.1477
23543SOL    HW172070  -0.010   6.167   8.641  1.0529 -2.1010  0.4220
23543SOL    HW272071   0.075   6.287   8.606 -2.0411  0.2843  0.6378
23544SOL     OW72072   4.343   4.064   3.319  0.2563 -0.4903  0.4939
23544SOL    HW172073   4.393   4.052   3.400 -0.2387  0.9633  1.0480
23544SOL    HW272074   4.254   4.035   3.341  0.0208  0.2940  0.6222
23545SOL     OW72075   0.994   2.665   6.633 -0.0703  0.0399 -0.0394
23545SOL    HW172076   0.900   2.685   6.635 -0.3081 -1.0324  0.3388
23545SOL    HW272077   1.036   2.748   6.652 -0.9168  0.6903 -0.9037
23546SOL     OW72078   0.129   2.320   1.178 -0.6234 -0.3742 -0.1765
23546SOL    HW172079   0.038   2.307   1.206 -2.1451  3.6673 -2.3452
23546SOL    HW272080   0.166   2.380   1.242 -0.3301 -0.0684 -0.6257
23547SOL     OW72081   7.838   6.334   6.763  0.3613  0.0450 -0.1622
23547SOL    HW172082   7.906   6.376   6.710 -2.4176  1.4796 -2.9036
23547SOL    HW272083   7.776   6.404   6.782 -2.1049 -1.8615 -0.8058
23548SOL     OW72084   1.653   1.872   8.800  0.4087  0.0397 -0.3839
23548SOL    HW172085   1.565   1.872   8.763 -0.0885  0.9933  0.7104
23548SOL    HW272086   1.711   1.853   8.726 -0.6671  0.0462 -1.2465
23549SOL     OW72087   7.246   3.718   1.051 -0.4619 -0.0872 -0.1850
23549SOL    HW172088   7.169   3.674   1.014 -0.7285 -0.7175  1.0600
23549SOL    HW272089   7.210   3.793   1.098 -0.0757  1.0342 -1.6186
23550SOL     OW72090   1.005   0.379   4.171  0.1157 -0.0087  0.2093
23550SOL    HW172091   0.915   0.387   4.138  0.4975 -1.3928 -1.2989
23550SOL    HW272092   1.032   0.469   4.187 -1.4643  0.4480  0.5124
23551SOL     OW72093   2.077   7.257  11.435  0.3259  0.0182 -0.0559
23551SOL    HW172094   1.998   7.292  11.475 -0.3925 -1.7525  0.1729
23551SOL    HW272095   2.148   7.282  11.494 -0.0613  1.5157 -0.2009
23552SOL     OW72096   0.456   6.543  10.277  0.0360 -0.1238  0.0606
23552SOL    HW172097   0.421   6.618  10.229  0.0510 -0.3847 -0.3582
23552SOL    HW272098   0.537   6.576  10.316  0.5310 -0.1806 -0.8902
23553SOL     OW72099   4.710   6.079   2.829  0.0579 -0.2640  0.5561
23553SOL    HW172100   4.805   6.064   2.825 -0.0388 -0.7951  0.1634
23553SOL    HW272101   4.700   6.148   2.895  0.6267 -1.0988  1.5601
23554SOL     OW72102   5.770   2.850   2.422  0.7881  0.4242  0.5416
23554SOL    HW172103   5.772   2.778   2.359 -1.0086 -0.7027  1.6970
23554SOL    HW272104   5.705   2.911   2.387  0.4890  0.2607  0.8050
23555SOL     OW72105   7.064   6.755   6.108  0.3967  0.5970 -0.2020
23555SOL    HW172106   6.980   6.763   6.063 -0.1882  1.6753  1.0038
23555SOL    HW272107   7.130   6.755   6.038 -0.5526  0.6213 -1.1129
23556SOL     OW72108   1.458   5.940   1.966 -0.0106 -0.3539  0.2545
23556SOL    HW172109   1.486   5.915   2.054  1.0232  1.5880  0.5286
23556SOL    HW272110   1.418   5.861   1.930 -1.5196 -0.8803  2.8655
23557SOL     OW72111   2.426   2.784   1.371 -0.1315 -0.3520 -0.2356
23557SOL    HW172112   2.420   2.696   1.334  0.5926 -0.2447 -0.6284
23557SOL    HW272113   2.437   2.769   1.465 -0.5706 -0.6639 -0.2332
23558SOL     OW72114   2.094   1.779   3.577 -0.1672 -0.4575 -0.5946
23558SOL    HW172115   2.127   1.858   3.618  2.3103 -0.8264 -1.6952
23558SOL    HW272116   2.095   1.799   3.483  1.4466 -2.0552 -0.9662
23559SOL     OW72117   3.382   1.263   1.599  0.2746  0.0618  0.0557
23559SOL    HW172118   3.372   1.358   1.601 -0.5458 -0.0216  0.2403
23559SOL    HW272119   3.302   1.229   1.640  0.7026 -0.7002  0.2836
23560SOL     OW72120   5.045   0.201   9.810 -0.3714  0.2528  0.2831
23560SOL    HW172121   4.958   0.186   9.774 -0.3997 -2.2494  1.1995
23560SOL    HW272122   5.036   0.280   9.863 -2.3619 -0.4526  1.0904
23561SOL     OW72123   2.810   7.708   8.842 -0.1919  0.2860  0.2380
23561SOL    HW172124   2.858   7.678   8.764  0.8104  2.1432  0.0978
23561SOL    HW272125   2.731   7.653   8.843  2.1975 -3.5450  0.9630
23562SOL     OW72126   6.951   6.827  11.244  0.6750 -0.2873  0.4965
23562SOL    HW172127   7.022   6.882  11.279  0.8094 -0.5815  0.6924
23562SOL    HW272128   6.921   6.776  11.319  0.7629 -0.7078  0.2488
23563SOL     OW72129   5.229   5.608   5.290  0.2261 -0.1060  0.3644
23563SOL    HW172130   5.253   5.573   5.376  0.2174 -0.6700  0.1409
23563SOL    HW272131   5.215   5.530   5.236  1.3901  0.2458 -0.4720
23564SOL     OW72132   1.915   5.084   5.898  0.8542  0.1588  0.2221
23564SOL    HW172133   1.943   5.175   5.909  1.1800  0.0423  0.3718
23564SOL    HW272134   1.828   5.090   5.860  0.6462  0.5436  0.7517
23565SOL     OW72135   4.807   7.770   2.352 -0.2143  0.0947  0.2703
23565SOL    HW172136   4.866   7.720   2.297 -1.2686 -0.3938 -0.4523
23565SOL    HW272137   4.766   7.705   2.409 -0.1220  0.4156  0.7109
23566SOL     OW72138   4.246   5.270   8.202  0.2448  0.1620 -0.3109
23566SOL    HW172139   4.168   5.216   8.192  1.2810 -1.0824 -2.3063
23566SOL    HW272140   4.244   5.331   8.128  1.7202 -0.6998 -1.1194
23567SOL     OW72141   4.597   2.800   3.046  0.1278 -0.4451 -0.2071
23567SOL    HW172142   4.677   2.765   3.084  2.3087  1.9208 -2.2392
23567SOL    HW272143   4.600   2.775   2.954 -1.0601  0.3638 -0.5013
23568SOL     OW72144   6.797   3.196   5.854  0.2213 -0.0213  0.4657
23568SOL    HW172145   6.719   3.222   5.903 -0.7062  0.6517 -1.2962
23568SOL    HW272146   6.822   3.274   5.804 -0.5093 -1.4048 -2.2198
23569SOL     OW72147   1.849   0.642   2.195  0.0258  0.3359 -0.6720
23569SOL    HW172148   1.775   0.621   2.138 -0.5709  0.4123  0.0534
23569SOL    HW272149   1.901   0.562   2.198 -1.2703 -0.5186  0.6392
23570SOL     OW72150   0.281   2.494   3.731  0.1699 -0.3459 -0.3822
23570SOL    HW172151   0.206   2.443   3.763  0.9494 -0.9551  0.5032
23570SOL    HW272152   0.287   2.472   3.638  0.1736 -1.4728 -0.1239
23571SOL     OW72153   2.974   5.008   4.597  0.2959  0.4802  0.6790
23571SOL    HW172154   2.931   4.963   4.669  0.3867  0.7489  0.9011
23571SOL    HW272155   3.056   4.961   4.584  0.2871  0.4435  0.7601
23572SOL     OW72156   7.221   6.004   6.682  0.1683  0.0142 -0.2993
23572SOL    HW172157   7.282   5.954   6.628  0.4227  0.9859 -0.9482
23572SOL    HW272158   7.264   6.089   6.694 -0.1622  0.0345  0.9250
23573SOL     OW72159   3.708   2.579   2.706 -0.2204 -0.6014  0.6069
23573SOL    HW172160   3.742   2.568   2.795  0.5469  0.5604  0.4764
23573SOL    HW272161   3.725   2.670   2.685  0.8880 -1.1834 -1.2726
23574SOL     OW72162   7.538   6.700   9.036 -0.1674 -0.1326  0.4927
23574SOL    HW172163   7.477   6.745   8.978  1.0213  0.2529 -0.4717
23574SOL    HW272164   7.590   6.770   9.076  1.4280 -0.5868 -0.7161
23575SOL     OW72165   0.308   4.792   7.314  0.1806 -0.2026 -0.1432
23575SOL    HW172166   0.382   4.748   7.272  1.1042  1.2371 -0.1110
23575SOL    HW272167   0.273   4.729   7.376  0.3488 -1.4872 -1.3177
23576SOL     OW72168   7.853   5.718   0.114  0.3225 -0.1413  0.6696
23576SOL    HW172169   7.881   5.627   0.114 -1.8682 -0.8679  0.6418
23576SOL    HW272170   7.790   5.724   0.042 -2.5657  0.3305  3.0087
23577SOL     OW72171   5.297   7.930   7.798  0.1673  0.3079  0.0646
23577SOL    HW172172   5.344   8.012   7.779 -0.3613  0.7791  0.7464
23577SOL    HW272173   5.358   7.878   7.849  1.1435 -0.4516 -1.8052
23578SOL     OW72174   3.050   2.769   2.642  0.3773 -0.1726  0.0032
23578SOL    HW172175   2.965   2.753   2.684  1.4960 -0.7860  2.1427
23578SOL    HW272176   3.109   2.705   2.681  1.9130  0.4410 -1.2268
23579SOL     OW72177   5.567   0.884   0.388 -0.0266 -1.0330 -0.5681
23579SOL    HW172178   5.555   0.804   0.338  1.0979 -0.5244 -1.6945
23579SOL    HW272179   5.485   0.932   0.375 -0.4894 -1.7469 -0.3394
23580SOL     OW72180   4.487   0.459  10.446  0.1561  0.1103 -0.2543
23580SOL    HW172181   4.578   0.490  10.444 -0.0605  0.8524 -3.1910
23580SOL    HW272182   4.457   0.477  10.535  1.7685  3.2857 -0.2187
23581SOL     OW72183   0.348   4.810   3.216 -0.1180  0.0089  0.6657
23581SOL    HW172184   0.380   4.841   3.301 -1.2153 -1.4639  1.6590
23581SOL    HW272185   0.325   4.719   3.231 -1.1800 -0.0325 -1.0023
23582SOL     OW72186   1.493   1.692   8.358  0.1297 -0.5039 -0.6278
23582SOL    HW172187   1.550   1.666   8.285 -0.6551 -1.8088 -0.7994
23582SOL    HW272188   1.431   1.754   8.319 -1.0434 -2.0935 -1.3967
23583SOL     OW72189   6.058   6.015  11.067  0.3335 -0.5217  0.3695
23583SOL    HW172190   5.998   5.945  11.093  0.5533 -0.0027  2.4451
23583SOL    HW272191   6.138   5.970  11.042  0.2952 -1.0597  1.1811
23584SOL     OW72192   6.122   0.408   4.379  0.3652 -0.3064 -0.8050
23584SOL    HW172193   6.124   0.394   4.285  1.8649 -0.3998 -0.7944
23584SOL    HW272194   6.212   0.390   4.408  0.4725  1.7352  0.3417
23585SOL     OW72195   5.396   1.067   9.981 -0.2924 -0.0991 -0.7133
23585SOL    HW172196   5.462   1.006  10.016 -0.4727 -0.1871 -0.5285
23585SOL    HW272197   5.317   1.047  10.030 -0.3313  0.3473 -0.5912
23586SOL     OW72198   0.309   4.951   3.880 -0.0337  0.4105  0.1504
23586SOL    HW172199   0.243   4.882   3.883 -0.9027  1.1952 -0.3201
23586SOL    HW272200   0.341   4.950   3.790  1.0718 -0.3635  0.5190
23587SOL     OW72201   3.188   2.542  10.549  0.5485  0.1401 -0.2544
23587SOL    HW172202   3.114   2.489  10.579  0.9154  0.4571  1.2631
23587SOL    HW272203   3.148   2.615  10.502 -0.0136 -0.6152 -0.9924
23588SOL     OW72204   3.067   1.182   7.440  0.2308 -0.7656 -0.1150
23588SOL    HW172205   3.091   1.128   7.516  0.8738 -1.1180 -0.5658
23588SOL    HW272206   3.043   1.118   7.373  0.4628 -0.4744 -0.4737
23589SOL     OW72207   1.694   0.582   3.459 -0.5000 -0.0652  0.0126
23589SOL    HW172208   1.748   0.660   3.474  1.2619 -0.8149 -1.8460
23589SOL    HW272209   1.737   0.513   3.509 -1.5892 -0.0515  1.0050
23590SOL     OW72210   4.345   6.622   6.707  0.1808 -0.4003 -0.0852
23590SOL    HW172211   4.330   6.541   6.756  1.4223 -0.4031  0.3325
23590SOL    HW272212   4.440   6.636   6.713 -0.0388  1.2415  0.1119
23591SOL     OW72213   1.110   0.425   1.883 -0.1344  0.2204 -0.6023
23591SOL    HW172214   1.133   0.431   1.790  0.6842  1.9022 -0.3184
23591SOL    HW272215   1.042   0.491   1.895 -1.6183 -1.2859 -0.3652
23592SOL     OW72216   0.693   5.378   5.092  0.5427  0.9080  0.4179
23592SOL    HW172217   0.676   5.371   4.998  1.8776 -1.0575  0.2588
23592SOL    HW272218   0.608   5.399   5.131 -0.4184 -0.0975 -1.0579
23593SOL     OW72219   1.627   5.503   2.153 -0.1647  0.0202  0.5478
23593SOL    HW172220   1.708   5.546   2.180 -1.3816  1.6715  1.8152
23593SOL    HW272221   1.645   5.410   2.162  1.0342  0.3968  2.6053
23594SOL     OW72222   6.001   5.084   8.674  0.5011  0.5008 -0.0681
23594SOL    HW172223   6.078   5.134   8.646  0.1096  0.5862 -1.0509
23594SOL    HW272224   6.031   5.033   8.749  1.2417  1.2827  0.1841
23595SOL     OW72225   6.287   4.530  11.221  0.2432 -0.8545  0.2191
23595SOL    HW172226   6.346   4.459  11.197  0.9601 -0.1111 -0.2805
23595SOL    HW272227   6.343   4.595  11.264 -0.2196 -0.1816 -0.1770
23596SOL     OW72228   0.970   7.125   9.386 -0.6262  0.2247 -0.1169
23596SOL    HW172229   0.960   7.065   9.460 -1.3809 -1.3154 -1.4078
23596SOL    HW272230   0.954   7.212   9.423 -0.3228 -0.4306  1.6425
23597SOL     OW72231   6.395   4.907   9.604  0.1980  0.5155  0.6040
23597SOL    HW172232   6.346   4.974   9.556  1.5197 -0.8618 -3.0484
23597SOL    HW272233   6.487   4.926   9.586  0.6550 -1.4777  0.5366
23598SOL     OW72234   5.514   1.439   2.147  0.8128  0.0620 -0.3980
23598SOL    HW172235   5.540   1.354   2.182  0.7520  0.0977 -0.2660
23598SOL    HW272236   5.508   1.496   2.223  2.5202  0.6331 -0.6388
23599SOL     OW72237   7.622   6.937   1.172  0.2573 -0.4340 -0.1853
23599SOL    HW172238   7.551   6.873   1.168 -0.6307  0.4583  0.7256
23599SOL    HW272239   7.684   6.900   1.234  0.9587 -1.5383 -1.4829
23600SOL     OW72240   6.814   4.497   1.240  0.0205 -0.2568  0.1985
23600SOL    HW172241   6.739   4.542   1.201 -0.5409 -0.0522  1.4748
23600SOL    HW272242   6.883   4.503   1.173 -0.1645  2.1244  0.1294
23601SOL     OW72243   5.139   5.743   2.673  0.1382  0.1860 -0.2797
23601SOL    HW172244   5.213   5.796   2.642  1.4438 -0.3306  1.7809
23601SOL    HW272245   5.169   5.653   2.663  0.1066 -0.0142  1.2248
23602SOL     OW72246   7.204   7.760   7.089  0.1747 -0.4689 -0.0156
23602SOL    HW172247   7.273   7.823   7.069 -0.2544  0.2636  0.7464
23602SOL    HW272248   7.248   7.675   7.087  0.4937 -0.3073 -2.3468
23603SOL     OW72249   1.564   6.527  11.853 -0.1041  0.0089  0.1155
23603SOL    HW172250   1.497   6.487  11.798 -0.7464 -0.1436  1.0038
23603SOL    HW272251   1.638   6.543  11.793 -0.6406 -0.5245 -0.6955
23604SOL     OW72252   1.785   0.820   3.102 -0.0320 -0.6085  0.0062
23604SOL    HW172253   1.802   0.912   3.083  0.6919 -0.9730 -1.1766
23604SOL    HW272254   1.758   0.782   3.018  0.3803 -1.6384  0.3174
23605SOL     OW72255   1.101   3.939   6.831  0.4153  0.2774 -0.1419
23605SOL    HW172256   1.167   3.900   6.773 -0.4195 -0.1880 -0.8066
23605SOL    HW272257   1.113   3.894   6.914  0.7766  0.0232 -0.3248
23606SOL     OW72258   3.193   1.678   9.418 -0.1416  0.7693 -0.3165
23606SOL    HW172259   3.168   1.770   9.427  0.9557  1.0790 -0.3850
23606SOL    HW272260   3.286   1.676   9.438  0.3243  0.0062 -2.3438
23607SOL     OW72261   4.827   2.015   8.605  0.0970  0.0693  0.3756
23607SOL    HW172262   4.766   2.069   8.555 -1.0162  0.7740  2.4017
23607SOL    HW272263   4.792   1.926   8.599  0.1646  0.0780 -0.3141
23608SOL     OW72264   2.518   0.827   9.423 -0.1863  0.6977  0.0393
23608SOL    HW172265   2.435   0.851   9.382 -1.3810 -0.7187  1.4837
23608SOL    HW272266   2.502   0.841   9.517  0.5190 -1.3826  0.5224
23609SOL     OW72267   4.083   2.529  11.544  0.5467 -0.4875 -0.0477
23609SOL    HW172268   4.092   2.509  11.451 -0.7226  0.5031 -0.4206
23609SOL    HW272269   4.155   2.589  11.564 -0.5903  1.2852 -1.0413
23610SOL     OW72270   1.467   1.420  12.087  0.5611 -0.0726  0.2336
23610SOL    HW172271   1.393   1.394  12.143  0.3976  0.3383  0.2102
23610SOL    HW272272   1.520   1.340  12.080 -0.3088 -0.6081 -0.4405
23611SOL     OW72273   6.114   6.336  11.861 -0.2317  0.3098  0.1056
23611SOL    HW172274   6.056   6.271  11.820 -1.0639  0.5062  0.9528
23611SOL    HW272275   6.061   6.416  11.866 -0.1612  0.2873  1.5645
23612SOL     OW72276   7.356   3.546   4.065  0.1965  0.1585 -0.1670
23612SOL    HW172277   7.267   3.516   4.085 -0.3639  1.8893  0.0709
23612SOL    HW272278   7.346   3.602   3.989  0.6771  2.2891  1.2666
23613SOL     OW72279   0.462   7.764   4.108  0.0671 -0.0303 -0.4297
23613SOL    HW172280   0.367   7.763   4.101  0.1622 -0.4999 -1.9284
23613SOL    HW272281   0.481   7.828   4.177 -1.2918  0.5331 -0.5634
23614SOL     OW72282   7.190   0.802  11.415  0.6250  0.2153 -0.4220
23614SOL    HW172283   7.145   0.803  11.330  0.8503 -0.5815 -0.5668
23614SOL    HW272284   7.148   0.871  11.466 -0.4720 -0.2332 -0.6978
23615SOL     OW72285   5.950   0.255   3.696  0.4141 -0.0205  0.7051
23615SOL    HW172286   6.031   0.221   3.658  0.1230 -1.5008  1.3189
23615SOL    HW272287   5.904   0.295   3.623  1.0028 -0.5448  0.0299
23616SOL     OW72288   0.120   4.246  10.871 -0.0238  0.2060  0.6184
23616SOL    HW172289   0.184   4.232  10.941 -0.1353 -0.8252  0.5172
23616SOL    HW272290   0.171   4.245  10.790 -0.0777  0.0213  0.5857
23617SOL     OW72291   7.477   7.160   8.179 -0.3884 -0.7954 -0.0087
23617SOL    HW172292   7.510   7.097   8.115  0.8668  1.5822 -1.8772
23617SOL    HW272293   7.532   7.148   8.256  0.8442 -0.9872 -0.8898
23618SOL     OW72294   1.771   2.063   1.921 -0.2185  0.5767  0.1319
23618SOL    HW172295   1.724   2.035   1.842 -0.6353  2.5284 -0.3670
23618SOL    HW272296   1.707   2.114   1.970 -0.1786 -1.1738  2.1457
23619SOL     OW72297   6.367   7.644   1.566  0.2065  0.3781 -0.4754
23619SOL    HW172298   6.363   7.659   1.661  2.1195 -2.7426  0.2352
23619SOL    HW272299   6.332   7.556   1.554  2.0750 -0.2030 -2.3396
23620SOL     OW72300   7.898   1.974  11.841 -0.5011  0.2358  0.0479
23620SOL    HW172301   7.941   1.970  11.756  1.1791  1.4527  0.7980
23620SOL    HW272302   7.825   2.035  11.829 -0.9525 -0.4328 -0.7600
23621SOL     OW72303   3.462   7.101  11.491  0.1328  0.1988 -0.1879
23621SOL    HW172304   3.539   7.103  11.434  0.7763 -0.4012  0.6484
23621SOL    HW272305   3.418   7.184  11.473  1.0948  0.6605 -0.5153
23622SOL     OW72306   5.505   2.589  10.818  0.0060 -0.4851  0.1704
23622SOL    HW172307   5.592   2.556  10.841 -0.5669 -2.2711 -0.0579
23622SOL    HW272308   5.456   2.586  10.900  0.1721  0.5868  0.3141
23623SOL     OW72309   6.056   5.573   9.716 -0.2919  0.2208  0.2036
23623SOL    HW172310   6.085   5.564   9.807  0.9249  0.0776 -0.1916
23623SOL    HW272311   5.994   5.646   9.718 -0.4118  0.1049  1.1721
23624SOL     OW72312   7.100   6.567   5.445 -0.3535 -0.1511  0.4137
23624SOL    HW172313   7.134   6.489   5.488 -0.1009 -0.8643 -1.0248
23624SOL    HW272314   7.011   6.544   5.421 -0.8221  0.5873  1.3555
23625SOL     OW72315   4.897   5.510   6.138 -0.4427 -0.1835 -0.1084
23625SOL    HW172316   4.835   5.510   6.065  0.1897 -1.0594 -0.6681
23625SOL    HW272317   4.850   5.469   6.210 -0.8243  0.0160 -0.2414
23626SOL     OW72318   0.648   3.303   0.387 -0.5987  0.2778 -0.4657
23626SOL    HW172319   0.610   3.350   0.312 -0.1382  0.5864 -0.5066
23626SOL    HW272320   0.737   3.338   0.395 -1.2882  1.7392  1.4924
23627SOL     OW72321   1.981   5.622   6.738  0.0873  0.6417 -1.1419
23627SOL    HW172322   2.069   5.590   6.722  0.2751  0.9876 -0.8134
23627SOL    HW272323   1.924   5.550   6.710  0.5112 -0.3118  0.2919
23628SOL     OW72324   6.185   2.537   5.635  0.4080  0.0468  0.5055
23628SOL    HW172325   6.158   2.628   5.647 -1.3642  0.0266 -2.5530
23628SOL    HW272326   6.229   2.536   5.550  3.2942 -1.4748  1.8525
23629SOL     OW72327   4.704   5.237   0.061  0.2225 -0.4658  0.0600
23629SOL    HW172328   4.797   5.228   0.042  0.2622  0.3348 -0.1536
23629SOL    HW272329   4.700   5.237   0.157  0.2277 -2.4414  0.0917
23630SOL     OW72330   3.534   0.687   3.724 -0.0076  0.5906 -0.6348
23630SOL    HW172331   3.514   0.715   3.814  1.0659 -0.2533 -0.1243
23630SOL    HW272332   3.629   0.680   3.722 -0.1682 -3.0653 -0.6952
23631SOL     OW72333   5.091   1.409   1.419 -0.2289  0.2038  0.0747
23631SOL    HW172334   5.057   1.320   1.428 -1.3985  0.7447  1.3220
23631SOL    HW272335   5.036   1.449   1.352 -1.1107  0.6219  1.0300
23632SOL     OW72336   1.914   2.215   2.303  0.2673  0.1688 -0.0453
23632SOL    HW172337   1.888   2.307   2.306 -0.1262  0.0257  1.1135
23632SOL    HW272338   1.911   2.186   2.394  1.2595 -0.7533 -0.2889
23633SOL     OW72339   5.635   5.575   9.032 -0.1856  0.3464  0.4446
23633SOL    HW172340   5.597   5.637   8.969 -1.5633  0.7607  1.6170
23633SOL    HW272341   5.669   5.631   9.102  0.7328 -0.1299  0.3862
23634SOL     OW72342   3.775   5.137  11.018  0.0378 -0.1697 -0.2785
23634SOL    HW172343   3.807   5.084  10.945 -0.7563 -1.1428  0.0563
23634SOL    HW272344   3.821   5.102  11.094 -2.3569 -2.2302  0.3662
23635SOL     OW72345   5.998   3.004   2.846  0.5111  0.0828  0.2970
23635SOL    HW172346   5.995   3.077   2.785  0.1858 -1.5160 -1.6753
23635SOL    HW272347   5.918   2.955   2.831  0.7991 -0.8090  1.4572
23636SOL     OW72348   3.827   2.816   0.911  0.1281  0.0758  0.0618
23636SOL    HW172349   3.918   2.793   0.930 -0.4152 -0.7633  1.8803
23636SOL    HW272350   3.828   2.911   0.899  1.2418  0.0637 -0.0057
23637SOL     OW72351   5.574   7.793   0.142  0.1071 -0.0488 -0.3289
23637SOL    HW172352   5.518   7.718   0.162 -0.2605  0.6573  1.4744
23637SOL    HW272353   5.577   7.843   0.223  1.3381  1.2571 -1.1330
23638SOL     OW72354   6.116   2.989   8.006 -0.0695 -0.1418 -0.3853
23638SOL    HW172355   6.179   3.050   8.043  2.5869 -2.0147 -1.4913
23638SOL    HW272356   6.070   2.952   8.081 -0.2567  1.6178  0.4143
23639SOL     OW72357   2.289   3.232   8.262 -0.0235  0.2580 -0.1475
23639SOL    HW172358   2.272   3.244   8.356 -1.1772  2.9115 -0.5958
23639SOL    HW272359   2.226   3.166   8.235 -0.7040  0.5364  0.7074
23640SOL     OW72360   4.715   4.500   8.287 -0.4544  0.0649  0.5112
23640SOL    HW172361   4.679   4.457   8.365 -2.6961  1.3924  0.2947
23640SOL    HW272362   4.717   4.431   8.221 -0.5165 -0.5727  1.1584
23641SOL     OW72363   7.664   2.698   7.238 -0.3844  0.0837 -0.2522
23641SOL    HW172364   7.588   2.640   7.229  0.2292 -0.5743 -1.5165
23641SOL    HW272365   7.655   2.736   7.325 -1.6923 -0.6469 -0.0377
23642SOL     OW72366   5.741   0.049   1.166 -0.1074  0.0139  1.1267
23642SOL    HW172367   5.690   0.123   1.134 -0.6413  0.2789  2.4885
23642SOL    HW272368   5.710   0.036   1.256  1.7601 -0.2512  1.7717
23643SOL     OW72369   1.221   5.664  11.330  0.3777  0.4902 -0.0895
23643SOL    HW172370   1.128   5.666  11.351  0.0535  0.1515 -1.4118
23643SOL    HW272371   1.260   5.730  11.388 -0.8898  1.6034 -0.4493
23644SOL     OW72372   1.944   2.752  12.367 -0.5632  0.1624 -0.2390
23644SOL    HW172373   1.926   2.659  12.353 -0.4010  0.4490 -2.7099
23644SOL    HW272374   1.860   2.789  12.393 -0.2096 -0.9489  3.0500
23645SOL     OW72375   3.014   2.198   3.865  0.8692  0.0102  0.4056
23645SOL    HW172376   3.096   2.181   3.911  0.4404 -0.0492  1.1502
23645SOL    HW272377   2.946   2.166   3.924  0.3558 -0.9252 -0.6525
23646SOL     OW72378   3.180   0.222   2.494 -0.8946  0.2325  0.2221
23646SOL    HW172379   3.203   0.227   2.401 -2.5515  0.1427 -0.2154
23646SOL    HW272380   3.263   0.200   2.538 -0.3777 -1.3189 -1.4032
23647SOL     OW72381   2.534   3.415   3.924 -0.0235 -0.1002 -0.5809
23647SOL    HW172382   2.483   3.487   3.888  0.8713  0.9319  0.1457
23647SOL    HW272383   2.617   3.418   3.875 -0.2908 -1.2192 -1.1607
23648SOL     OW72384   0.440   3.648   2.152 -0.8504  0.0570  0.0977
23648SOL    HW172385   0.502   3.686   2.214 -0.2649  0.6303 -0.8046
23648SOL    HW272386   0.372   3.608   2.206 -1.5726  2.4868  1.1403
23649SOL     OW72387   5.035   3.186   9.222  0.4871 -0.1854  0.2278
23649SOL    HW172388   5.120   3.156   9.189  0.3071 -1.5140  0.8991
23649SOL    HW272389   5.054   3.271   9.262  1.5604 -0.5777  0.5940
23650SOL     OW72390   5.376   6.667   0.620  0.4581 -0.3219  0.2692
23650SOL    HW172391   5.320   6.611   0.567  0.4807 -1.7205  1.6600
23650SOL    HW272392   5.464   6.630   0.610  0.3735 -0.9909  1.6960
23651SOL     OW72393   6.757   6.420   8.722 -0.0566  0.3351 -0.5519
23651SOL    HW172394   6.716   6.340   8.691 -1.3442  0.5630  0.4733
23651SOL    HW272395   6.731   6.426   8.814  0.8896  1.3810 -0.3383
23652SOL     OW72396   4.217   0.086   2.658 -0.4671  0.3999  0.0289
23652SOL    HW172397   4.144   0.025   2.667  0.2561 -0.4206  0.5531
23652SOL    HW272398   4.287   0.034   2.618  0.1305  0.9080  0.3852
23653SOL     OW72399   6.335   6.142  11.941 -0.1471  0.2847  0.5125
23653SOL    HW172400   6.307   6.093  11.864 -1.2491  0.3514  0.8584
23653SOL    HW272401   6.267   6.126  12.006  1.8337 -1.6232  2.2982
23654SOL     OW72402   0.800   6.092   8.439 -0.2923 -0.2901 -0.2882
23654SOL    HW172403   0.861   6.039   8.489 -1.4105 -0.8529  0.5352
23654SOL    HW272404   0.720   6.094   8.492 -1.7702 -1.4839 -2.3219
23655SOL     OW72405   1.994   3.348  11.047 -0.1754 -0.4276  0.1379
23655SOL    HW172406   1.923   3.392  11.001  0.5137  0.9241  0.3315
23655SOL    HW272407   1.950   3.296  11.115 -0.9559  0.9012  0.6804
23656SOL     OW72408   2.016   1.457   7.820 -0.3047 -0.3563  0.0506
23656SOL    HW172409   2.108   1.441   7.796 -0.1472 -2.6352  1.7779
23656SOL    HW272410   1.968   1.385   7.779 -0.9638 -0.4761  1.0055
23657SOL     OW72411   2.491   2.106  10.638  0.1170  0.0433 -0.2898
23657SOL    HW172412   2.497   2.200  10.621  0.6126  0.0743  0.0365
23657SOL    HW272413   2.539   2.065  10.566  0.7399  0.0907  0.0939
23658SOL     OW72414   2.251   3.128  11.811  0.1358  0.0474 -0.5154
23658SOL    HW172415   2.284   3.217  11.799 -0.4111  0.4475  0.7794
23658SOL    HW272416   2.306   3.090  11.878  0.3646 -0.6107 -1.0599
23659SOL     OW72417   0.240   7.394  10.231 -0.0444 -0.4306  0.5098
23659SOL    HW172418   0.249   7.486  10.258  0.6226 -0.3342 -0.0306
23659SOL    HW272419   0.315   7.350  10.269 -0.2373 -0.7123  0.5694
23660SOL     OW72420   1.826   1.289  10.772 -0.0297  0.5908 -0.1341
23660SOL    HW172421   1.857   1.198  10.771 -1.1813  0.0879  2.4762
23660SOL    HW272422   1.888   1.336  10.827  0.7816  1.5622 -1.7806
23661SOL     OW72423   1.307   0.287   7.195 -0.4810  0.1131  0.0304
23661SOL    HW172424   1.370   0.271   7.125 -1.8641  0.5221 -1.3858
23661SOL    HW272425   1.223   0.299   7.149 -1.6510 -0.7101  1.8407
23662SOL     OW72426   0.250   1.344   0.358  0.5775  0.3285 -0.5180
23662SOL    HW172427   0.294   1.359   0.441  1.4275  1.9356 -1.2097
23662SOL    HW272428   0.206   1.260   0.368 -0.2503  0.9761  1.9345
23663SOL     OW72429   6.196   6.318   8.187  0.4407 -0.1348 -0.3335
23663SOL    HW172430   6.154   6.317   8.273  0.2350  1.6641 -0.3652
23663SOL    HW272431   6.270   6.378   8.198  1.9150 -1.7869 -0.7918
23664SOL     OW72432   2.474   1.019   7.344 -0.0286 -0.1069  0.0649
23664SOL    HW172433   2.566   1.024   7.372  0.1680 -1.2322 -0.3337
23664SOL    HW272434   2.478   1.029   7.248 -0.4434  1.0337  0.1534
23665SOL     OW72435   4.207   2.220   3.865 -0.7389  0.0269  0.2858
23665SOL    HW172436   4.278   2.223   3.801  0.1546 -2.0214  1.1147
23665SOL    HW272437   4.214   2.134   3.906 -1.3763  1.1678  3.0418
23666SOL     OW72438   2.284   3.785   2.014  0.5297 -0.6097  0.9458
23666SOL    HW172439   2.345   3.723   1.973 -0.7822 -0.7715 -0.8837
23666SOL    HW272440   2.237   3.732   2.079  0.0301 -1.3554  0.0093
23667SOL     OW72441   3.069   6.318  10.150 -0.0705  0.0681 -0.0824
23667SOL    HW172442   3.088   6.277  10.234 -0.7730 -0.6237 -0.2550
23667SOL    HW272443   3.012   6.256  10.105  1.1691 -0.0971 -1.5231
23668SOL     OW72444   2.956   6.961   3.358 -0.2690 -0.2603  0.5132
23668SOL    HW172445   2.996   7.008   3.285  1.4324  0.1059  1.6471
23668SOL    HW272446   2.997   6.874   3.356  0.2007 -0.0650  1.3526
23669SOL     OW72447   6.575   1.717   4.128  0.0284  0.1586  0.4799
23669SOL    HW172448   6.539   1.682   4.209 -1.3253 -0.1796 -0.2314
23669SOL    HW272449   6.508   1.778   4.096  0.0423 -0.5181 -0.9119
23670SOL     OW72450   5.535   0.700  12.302 -0.2167 -0.3436 -0.1937
23670SOL    HW172451   5.495   0.710  12.215  0.8669 -0.7288 -0.7631
23670SOL    HW272452   5.624   0.670  12.283 -0.0820 -0.7836  1.0763
23671SOL     OW72453   2.505   5.768   9.728 -0.6320  0.6647  0.3213
23671SOL    HW172454   2.495   5.753   9.822 -2.4863 -1.2437 -0.1020
23671SOL    HW272455   2.464   5.691   9.688 -2.5084  2.7832 -2.0982
23672SOL     OW72456   6.451   7.838   9.245 -0.0325 -0.2861  0.5004
23672SOL    HW172457   6.436   7.747   9.219  0.3043  0.1834 -1.4655
23672SOL    HW272458   6.399   7.848   9.325 -0.2295 -2.1420  0.6556
23673SOL     OW72459   4.998   3.263   8.555  0.6063  0.3149 -0.4005
23673SOL    HW172460   5.011   3.296   8.466  0.1233  0.3000 -0.4751
23673SOL    HW272461   4.978   3.170   8.543 -1.1897  0.6716 -0.3970
23674SOL     OW72462   6.588   2.263   1.503 -0.1562  0.1124 -0.0763
23674SOL    HW172463   6.524   2.308   1.558  0.4998  0.9193  0.0462
23674SOL    HW272464   6.657   2.235   1.563  1.3605  2.3850 -0.6088
23675SOL     OW72465   4.803   5.039   2.824  0.0508  0.5564 -0.6337
23675SOL    HW172466   4.785   4.946   2.840 -0.1785  0.5964 -0.6508
23675SOL    HW272467   4.740   5.085   2.878  0.0374  0.7006 -0.7723
23676SOL     OW72468   2.217   6.152   6.191 -0.1555  0.4974 -0.4568
23676SOL    HW172469   2.248   6.185   6.106 -0.7251  0.8546 -0.5330
23676SOL    HW272470   2.143   6.209   6.213  0.1559  0.5731  0.4123
23677SOL     OW72471   6.114   2.217   8.990  0.1603  0.0568 -0.1782
23677SOL    HW172472   6.083   2.268   9.065 -1.3734  0.3956 -0.9987
23677SOL    HW272473   6.179   2.274   8.948 -0.2862  0.6292 -0.1124
23678SOL     OW72474   7.842   6.742  10.595 -0.0631  0.0716 -0.0578
23678SOL    HW172475   7.869   6.741  10.503 -0.8775 -0.1554 -0.3007
23678SOL    HW272476   7.873   6.659  10.631  0.4845  0.2737 -0.0554
23679SOL     OW72477   4.597   6.715   8.971 -0.1284  0.6281  0.2638
23679SOL    HW172478   4.630   6.801   8.996  1.1967  0.4842 -0.8246
23679SOL    HW272479   4.655   6.688   8.900  1.7454 -2.5858  2.6858
23680SOL     OW72480   1.073   2.404   5.984  0.0035  0.0217  0.3066
23680SOL    HW172481   1.014   2.382   5.912  0.2163  1.1818 -0.2470
23680SOL    HW272482   1.042   2.489   6.015  1.4279  0.7045 -0.0616
23681SOL     OW72483   4.453   1.815   0.411  0.6002  0.5327 -0.1664
23681SOL    HW172484   4.527   1.869   0.442  1.6285 -1.1207  0.3962
23681SOL    HW272485   4.490   1.761   0.342 -0.6167  1.0498 -1.2693
23682SOL     OW72486   2.436   5.788   0.484 -0.6066  0.0139  0.1368
23682SOL    HW172487   2.462   5.762   0.573 -0.4981 -1.0317 -0.1789
23682SOL    HW272488   2.493   5.736   0.427 -1.0879  0.2285 -0.5457
23683SOL     OW72489   4.626   7.677   1.478 -0.4389 -0.1302 -0.2124
23683SOL    HW172490   4.533   7.660   1.489 -0.5949  0.0789 -1.1644
23683SOL    HW272491   4.665   7.651   1.562 -1.4462  0.4940  0.4660
23684SOL     OW72492   6.214   3.803   0.695 -0.0179 -0.4295  0.4141
23684SOL    HW172493   6.250   3.714   0.688  0.5916 -0.2379  0.9900
23684SOL    HW272494   6.150   3.798   0.766  0.6431 -0.2253  1.0430
23685SOL     OW72495   7.212   4.861   5.281  0.3595  0.6845  0.7725
23685SOL    HW172496   7.288   4.836   5.229 -1.5348 -0.6352 -1.5943
23685SOL    HW272497   7.194   4.951   5.256  0.4857  0.6196  0.4442
23686SOL     OW72498   1.250   0.386   8.787 -0.6851 -0.4994  0.1364
23686SOL    HW172499   1.283   0.298   8.807  0.0775  0.0473  1.4070
23686SOL    HW272500   1.155   0.377   8.793 -0.5988 -1.1426  0.7377
23687SOL     OW72501   0.903   0.216  11.351  0.2690 -0.0396  0.0481
23687SOL    HW172502   0.815   0.252  11.364  0.9107  1.6764 -0.0419
23687SOL    HW272503   0.929   0.185  11.438  0.4222  1.5417  0.5985
23688SOL     OW72504   7.856   2.914   1.507 -0.4641 -0.8509 -0.0252
23688SOL    HW172505   7.830   2.849   1.572 -0.9467  0.1782  0.8465
23688SOL    HW272506   7.773   2.953   1.479 -0.1125  0.2951  0.4646
23689SOL     OW72507   3.794   3.857   1.648  0.3233  0.5991 -0.1729
23689SOL    HW172508   3.776   3.950   1.635 -0.2137  0.4007 -0.9471
23689SOL    HW272509   3.878   3.854   1.693 -0.0518  1.4844  0.6090
23690SOL     OW72510   6.752   5.810   4.283 -0.1235  0.1003 -0.3234
23690SOL    HW172511   6.826   5.822   4.342  0.2306  0.6978 -0.8663
23690SOL    HW272512   6.760   5.720   4.252  0.0295 -0.0260  0.0848
23691SOL     OW72513   1.969   1.617   4.751  0.9896 -0.0684  0.4948
23691SOL    HW172514   1.997   1.532   4.787  2.1179  0.0857  0.0075
23691SOL    HW272515   2.009   1.621   4.664 -1.5794 -0.3688 -0.7886
23692SOL     OW72516   1.885   1.062  11.718 -0.3587 -0.5671 -0.0704
23692SOL    HW172517   1.966   1.112  11.705 -0.8191 -0.0872 -1.3073
23692SOL    HW272518   1.909   0.972  11.695  0.1626 -0.7020  0.9492
23693SOL     OW72519   0.636   0.566   7.558 -0.3084 -0.1943  0.1435
23693SOL    HW172520   0.576   0.570   7.632  1.6124 -0.7844  1.8249
23693SOL    HW272521   0.687   0.486   7.573  1.4867  0.7394 -0.7014
23694SOL     OW72522   1.512   2.252   8.432  0.6899 -0.6262 -0.2263
23694SOL    HW172523   1.578   2.214   8.373  0.2744 -3.0117  0.7245
23694SOL    HW272524   1.555   2.327   8.472  1.5456  0.0592 -2.2811
23695SOL     OW72525   2.221   3.211   7.704 -0.3808 -0.5768 -0.5253
23695SOL    HW172526   2.199   3.212   7.797 -0.9254  0.3504 -0.6586
23695SOL    HW272527   2.301   3.262   7.697 -0.8444  0.1354 -0.6840
23696SOL     OW72528   2.745   3.648   3.579  0.0674  0.0372  0.2549
23696SOL    HW172529   2.718   3.605   3.498  0.1883  2.5421 -1.2239
23696SOL    HW272530   2.679   3.715   3.595  0.4272  0.0590  1.8546
23697SOL     OW72531   0.147   6.479   5.459 -0.5089 -0.0245 -0.1863
23697SOL    HW172532   0.115   6.400   5.416  1.0546 -0.5236 -0.4924
23697SOL    HW272533   0.145   6.546   5.391  0.0752 -0.3172 -0.4993
23698SOL     OW72534   3.021   4.414  11.638  0.1133  0.0526  0.0800
23698SOL    HW172535   3.106   4.400  11.681  0.0779 -0.7375 -0.0957
23698SOL    HW272536   2.970   4.335  11.658 -0.0703 -0.1268 -1.0073
23699SOL     OW72537   7.264   3.943   4.090  0.1110 -0.4983  0.0755
23699SOL    HW172538   7.292   3.879   4.155  1.3305 -0.6474 -0.5766
23699SOL    HW272539   7.344   3.969   4.045 -0.2767  1.7897  0.5637
23700SOL     OW72540   4.915   1.477   4.205  1.1297 -0.4375  0.2725
23700SOL    HW172541   4.898   1.559   4.250  2.4312 -0.5140  0.9532
23700SOL    HW272542   4.867   1.484   4.122 -1.0396 -0.1698  1.4833
23701SOL     OW72543   1.591   4.426   3.444 -0.0194 -0.5573 -0.4210
23701SOL    HW172544   1.533   4.425   3.367  0.2407  1.8756 -0.7459
23701SOL    HW272545   1.678   4.408   3.409 -0.2999 -2.7361 -0.1467
23702SOL     OW72546   4.193   5.151   0.124 -0.1558 -0.1172  0.1952
23702SOL    HW172547   4.273   5.164   0.074 -0.4574  0.2921 -0.1833
23702SOL    HW272548   4.136   5.224   0.100 -0.7368 -0.5291  0.2789
23703SOL     OW72549   0.746   4.821   8.405 -0.2198 -0.0232 -0.0525
23703SOL    HW172550   0.690   4.850   8.333  0.8289 -1.6889 -1.6373
23703SOL    HW272551   0.824   4.876   8.399 -0.6850  0.7419  0.6970
23704SOL     OW72552   2.102   6.203   7.447 -0.1389  0.1548  0.4091
23704SOL    HW172553   2.090   6.118   7.489  0.0083 -0.6894 -1.1849
23704SOL    HW272554   2.020   6.250   7.463 -0.9110 -0.9548 -0.1672
23705SOL     OW72555   7.896   0.813  10.448  0.2445 -0.2188  0.0629
23705SOL    HW172556   7.955   0.791  10.376  0.6711  1.5337 -0.1647
23705SOL    HW272557   7.934   0.892  10.487 -0.0648 -1.0067  2.1204
23706SOL     OW72558   6.586   2.269  10.690 -0.2734 -0.0819 -0.4590
23706SOL    HW172559   6.590   2.355  10.731  1.4258 -1.3674  2.4065
23706SOL    HW272560   6.521   2.220  10.742  0.0167 -1.0345 -0.9572
23707SOL     OW72561   7.630   5.747   7.855  0.0366  0.4305  0.2890
23707SOL    HW172562   7.698   5.727   7.919 -0.6131 -1.4097  0.4640
23707SOL    HW272563   7.669   5.814   7.799  1.0231  1.2888  1.9204
23708SOL     OW72564   5.476   5.706  12.364 -0.0717 -0.4392 -0.0726
23708SOL    HW172565   5.398   5.759  12.348  1.3614  1.4332 -1.3969
23708SOL    HW272566   5.507   5.735  12.450 -0.6891 -0.9996  0.3402
23709SOL     OW72567   0.734   7.312   2.770  0.6672  0.2108 -0.5270
23709SOL    HW172568   0.697   7.388   2.725 -0.2897  0.4002  0.5178
23709SOL    HW272569   0.828   7.317   2.753  0.5262  1.1926 -1.1130
23710SOL     OW72570   5.377   7.056   1.075  0.0579 -0.3629 -0.5614
23710SOL    HW172571   5.290   7.094   1.086  0.8544  1.8885 -1.2481
23710SOL    HW272572   5.363   6.962   1.072 -2.1809 -0.1257  0.6473
23711SOL     OW72573   1.826   0.643   4.832  0.2913  0.1671  0.1705
23711SOL    HW172574   1.889   0.646   4.761 -0.6519  0.9552 -0.6674
23711SOL    HW272575   1.837   0.556   4.871  1.8795  0.3012  0.0562
23712SOL     OW72576   5.241   1.980   1.559 -0.1841 -0.5353 -0.0496
23712SOL    HW172577   5.191   1.931   1.493 -1.7450  0.4456  0.3656
23712SOL    HW272578   5.175   2.025   1.611  1.1120  0.1390  1.0746
23713SOL     OW72579   6.638   4.793   1.552 -0.0232 -0.1676  0.1368
23713SOL    HW172580   6.704   4.806   1.621 -1.3289  1.3327  1.1725
23713SOL    HW272581   6.583   4.871   1.557 -2.3424 -1.7002 -0.1878
23714SOL     OW72582   6.221   2.857   7.363 -0.0104  0.0077 -0.1838
23714SOL    HW172583   6.233   2.892   7.274  4.0252  0.9916  0.5879
23714SOL    HW272584   6.200   2.934   7.416  1.3555  0.0544  0.3050
23715SOL     OW72585   6.496   0.249   3.255  0.4322  0.2333 -0.4733
23715SOL    HW172586   6.519   0.161   3.284  0.3469 -0.4686 -2.4406
23715SOL    HW272587   6.495   0.245   3.160  0.6909  2.4410 -0.6392
23716SOL     OW72588   0.610   1.677  11.857 -0.2498 -0.4658  0.4609
23716SOL    HW172589   0.618   1.643  11.768 -1.3260 -0.2479  0.2655
23716SOL    HW272590   0.683   1.739  11.866  0.5386 -1.3186  0.1369
23717SOL     OW72591   0.730   3.953   3.908  0.0652 -0.0342  0.2950
23717SOL    HW172592   0.757   3.886   3.971 -1.7669 -1.0657  0.0691
23717SOL    HW272593   0.803   3.961   3.848  0.3150 -1.9306  0.2800
23718SOL     OW72594   7.301   4.726  11.024 -0.1381  0.3932 -0.1006
23718SOL    HW172595   7.338   4.675  11.097  0.5866  1.3876  0.2445
23718SOL    HW272596   7.365   4.717  10.954  0.2930  1.2958  0.1616
23719SOL     OW72597   6.425   0.747  11.465 -0.0975  0.2743 -0.3913
23719SOL    HW172598   6.363   0.807  11.424  1.0873  0.6275 -1.7746
23719SOL    HW272599   6.388   0.728  11.551 -1.6237  1.1989 -0.8129
23720SOL     OW72600   7.659   6.179   8.453  0.5526 -0.3839 -0.1036
23720SOL    HW172601   7.680   6.209   8.364  0.1565 -0.2607 -0.1578
23720SOL    HW272602   7.743   6.178   8.499  0.3959  2.3388  0.3817
23721SOL     OW72603   3.728   0.811   5.692  0.0398 -0.0642  0.4741
23721SOL    HW172604   3.680   0.831   5.772  1.5612  0.6367  1.2701
23721SOL    HW272605   3.809   0.863   5.699  0.1422  0.1719 -1.6034
23722SOL     OW72606   2.678   0.663   9.277 -0.1580  0.0309  0.4622
23722SOL    HW172607   2.607   0.704   9.327  1.1627  1.8038  0.9777
23722SOL    HW272608   2.754   0.667   9.335  0.2097 -2.6865  0.2923
23723SOL     OW72609   3.704   1.773   1.285 -0.1333  0.1410  0.1617
23723SOL    HW172610   3.798   1.755   1.278  0.4909  3.0276 -0.2890
23723SOL    HW272611   3.667   1.748   1.201  0.0596 -1.7061  0.5994
23724SOL     OW72612   5.888   7.452   1.575 -0.4224  0.2565  0.3694
23724SOL    HW172613   5.922   7.390   1.511 -1.6387 -1.7792  1.5930
23724SOL    HW272614   5.871   7.399   1.653 -1.3184  2.1851  1.5523
23725SOL     OW72615   3.786   7.437  10.562  0.3810 -0.3332  0.3811
23725SOL    HW172616   3.820   7.507  10.619  2.3425 -1.1179  0.2702
23725SOL    HW272617   3.742   7.484  10.491  0.8292  0.7732  0.8035
23726SOL     OW72618   0.428   3.415  10.376 -0.0269 -0.1143 -0.0501
23726SOL    HW172619   0.472   3.338  10.412  0.5834 -0.3919 -1.3395
23726SOL    HW272620   0.359   3.435  10.439  0.2481 -1.2989  0.6505
23727SOL     OW72621   3.483   3.777   2.195  0.3138 -0.3357 -0.4990
23727SOL    HW172622   3.556   3.798   2.253 -0.4219 -0.6046  0.5552
23727SOL    HW272623   3.489   3.682   2.183  0.3326 -0.3104 -0.6936
23728SOL     OW72624   2.623   5.336   0.557 -0.1391  0.8809  0.2969
23728SOL    HW172625   2.669   5.256   0.531  0.9395  1.1719  1.2428
23728SOL    HW272626   2.572   5.360   0.480  0.0810 -0.3260 -0.2446
23729SOL     OW72627   3.946   0.525   9.209 -0.0646  0.2358 -0.0225
23729SOL    HW172628   3.969   0.602   9.157  2.0861 -0.0637  0.3942
23729SOL    HW272629   4.016   0.462   9.192 -0.3444 -0.6249  1.7063
23730SOL     OW72630   3.285   2.954   1.568 -0.4544 -0.1019  0.1349
23730SOL    HW172631   3.329   2.914   1.493 -2.6286  0.9976 -1.8534
23730SOL    HW272632   3.320   2.908   1.644  2.8281 -0.3767 -1.4045
23731SOL     OW72633   1.981   5.727   4.204 -0.2854  0.6680 -0.0420
23731SOL    HW172634   1.937   5.812   4.200  1.9493  1.9379  0.4883
23731SOL    HW272635   2.065   5.742   4.161 -0.2983 -1.6366 -1.0276
23732SOL     OW72636   7.697   6.255   7.700  0.2063  0.5665 -0.3367
23732SOL    HW172637   7.711   6.215   7.614 -1.4604  0.2533 -0.4979
23732SOL    HW272638   7.647   6.335   7.681  1.0756  1.2601  0.2346
23733SOL     OW72639   0.579   4.177  12.024  0.6482 -0.0073 -0.0966
23733SOL    HW172640   0.500   4.136  12.060  0.7857 -0.0613  0.1406
23733SOL    HW272641   0.581   4.147  11.933  0.4179 -0.0384 -0.0932
23734SOL     OW72642   5.094   6.922  10.047  0.2724  0.3166 -0.1604
23734SOL    HW172643   5.022   6.903  10.107 -0.4841  0.4521 -1.0048
23734SOL    HW272644   5.139   6.837  10.036 -0.8453 -0.1927 -1.0096
23735SOL     OW72645   0.261   0.791   5.398 -0.1079  0.5658 -0.4138
23735SOL    HW172646   0.168   0.808   5.413  0.3595  4.4310 -0.9504
23735SOL    HW272647   0.299   0.787   5.486 -0.8947 -3.0040 -0.0845
23736SOL     OW72648   6.401   3.427   5.406  0.0566 -0.4676  0.9703
23736SOL    HW172649   6.385   3.384   5.322 -0.3049  0.8447  0.3405
23736SOL    HW272650   6.313   3.436   5.445 -0.0384  0.7898  0.5209
23737SOL     OW72651   6.361   1.220  11.908  0.3980  0.1577  0.3315
23737SOL    HW172652   6.323   1.140  11.945  0.2810 -0.7245 -1.5556
23737SOL    HW272653   6.299   1.289  11.932 -1.3802 -0.9092 -0.8584
23738SOL     OW72654   6.693   1.276   9.488  0.2243 -0.6446 -0.3153
23738SOL    HW172655   6.614   1.323   9.461  0.2906  0.3279  1.0450
23738SOL    HW272656   6.665   1.185   9.497 -0.2866 -0.6225 -1.5571
23739SOL     OW72657   3.687   6.491  11.036 -0.1328 -0.5710  0.3160
23739SOL    HW172658   3.660   6.426  10.971  1.0729 -2.5220  1.6707
23739SOL    HW272659   3.739   6.442  11.099  2.2607  2.0242  0.5630
23740SOL     OW72660   6.420   0.050   8.532  0.1125  0.6543 -0.2074
23740SOL    HW172661   6.367  -0.000   8.470 -0.5711  0.8737  0.1906
23740SOL    HW272662   6.510   0.023   8.513 -0.2111 -0.5018 -0.1986
23741SOL     OW72663   4.908   1.115   6.562  0.1641  0.5405  0.0436
23741SOL    HW172664   4.990   1.159   6.584  0.1342  0.4602  0.3253
23741SOL    HW272665   4.930   1.060   6.487  0.8572 -0.9101  1.2376
23742SOL     OW72666   6.267   1.908  11.220 -0.1750  0.6023 -0.1887
23742SOL    HW172667   6.271   1.813  11.205 -0.3928  0.7607 -1.3381
23742SOL    HW272668   6.357   1.933  11.242 -0.4891 -0.1756  2.3109
23743SOL     OW72669   7.688   3.056   6.827  0.2262  0.1716 -0.3351
23743SOL    HW172670   7.618   3.114   6.857  0.0330 -0.1782 -0.1119
23743SOL    HW272671   7.721   3.013   6.906  0.8629  0.5136 -0.4046
23744SOL     OW72672   3.238   0.872   3.754 -0.1840  0.4313 -0.0653
23744SOL    HW172673   3.295   0.848   3.827  1.7910  1.9877 -0.9977
23744SOL    HW272674   3.263   0.810   3.684  1.3330  1.8488 -0.8588
23745SOL     OW72675   2.514   4.511  10.902  0.1503  0.4444 -0.2459
23745SOL    HW172676   2.471   4.482  10.822  0.8314 -2.2591  0.2619
23745SOL    HW272677   2.520   4.431  10.956  1.5225  1.7448  1.6464
23746SOL     OW72678   6.421   6.522   3.199  0.2417  0.4068  0.0353
23746SOL    HW172679   6.374   6.562   3.272 -1.7452  1.6427 -1.8394
23746SOL    HW272680   6.441   6.433   3.230  0.5337  1.2397  2.4841
23747SOL     OW72681   5.584   2.275   1.641  0.1980  0.6928 -0.0818
23747SOL    HW172682   5.657   2.336   1.637  1.9846 -1.2996  0.3496
23747SOL    HW272683   5.514   2.317   1.591  2.0533  2.1068 -1.6100
23748SOL     OW72684   3.110   6.172  11.625  0.2765 -0.3961  0.3200
23748SOL    HW172685   3.137   6.112  11.556  1.4933  1.4332 -0.8845
23748SOL    HW272686   3.016   6.157  11.635  0.3739 -1.7945 -0.6067
23749SOL     OW72687   6.934   4.107   1.168  0.4060  0.1717 -0.8103
23749SOL    HW172688   6.928   4.129   1.075 -1.6037 -2.1458 -1.3129
23749SOL    HW272689   6.849   4.132   1.205  0.8459  0.2118  0.2275
23750SOL     OW72690   5.686   7.035   1.832  0.1543 -0.1043 -0.5995
23750SOL    HW172691   5.725   7.046   1.745  1.0391  0.3664 -0.1589
23750SOL    HW272692   5.619   6.968   1.820  0.2023  0.0250 -1.6639
23751SOL     OW72693   1.214   6.250   0.618 -0.1146 -0.6171  0.0991
23751SOL    HW172694   1.139   6.290   0.662 -0.6209 -0.5669 -0.7755
23751SOL    HW272695   1.223   6.299   0.536  0.5481 -0.9675 -0.0472
23752SOL     OW72696   3.598   4.370   3.833 -0.5039 -0.0829  0.1518
23752SOL    HW172697   3.691   4.369   3.813 -0.4955  2.6996 -0.4129
23752SOL    HW272698   3.593   4.392   3.926 -0.6027 -0.7443  0.3056
23753SOL     OW72699   6.847   5.671  10.380 -0.6133 -0.4608 -0.3707
23753SOL    HW172700   6.880   5.722  10.454 -1.6155 -1.3001  0.6859
23753SOL    HW272701   6.887   5.713  10.303  1.8845 -0.6530  0.7133
23754SOL     OW72702   7.086   7.481   0.232  0.5368 -0.4368  0.0682
23754SOL    HW172703   7.143   7.483   0.155 -0.1490  0.9546 -0.4544
23754SOL    HW272704   7.143   7.458   0.305  1.4232 -0.7111 -0.7007
23755SOL     OW72705   7.186   0.219  10.135 -0.3344  0.2870  0.1744
23755SOL    HW172706   7.255   0.252  10.078  0.7252  0.2871  1.4104
23755SOL    HW272707   7.233   0.181  10.210 -1.6608 -0.1675  0.8060
23756SOL     OW72708   3.485   5.758   7.136 -0.0851 -0.2615 -0.0173
23756SOL    HW172709   3.501   5.696   7.207 -1.4166 -0.5689  0.0317
23756SOL    HW272710   3.557   5.821   7.144  0.2152 -0.7104  1.1318
23757SOL     OW72711   4.737   5.349   7.932 -0.2004 -0.0205 -0.1774
23757SOL    HW172712   4.705   5.259   7.932 -1.3227  0.3422  1.0088
23757SOL    HW272713   4.727   5.378   7.841 -1.4270 -0.5513 -0.2241
23758SOL     OW72714   3.565   3.800  11.948  0.1075 -0.5584 -0.3829
23758SOL    HW172715   3.609   3.753  11.877 -1.2050  0.3426 -1.8514
23758SOL    HW272716   3.480   3.755  11.957  0.0757 -0.3681  0.2995
23759SOL     OW72717   5.353   1.825   4.695 -0.2799  0.0993  0.2285
23759SOL    HW172718   5.448   1.824   4.710 -0.5706 -0.3181  2.3580
23759SOL    HW272719   5.329   1.733   4.687 -0.6419  0.1430  0.7828
23760SOL     OW72720   5.362   2.377   8.541  0.1475  0.1694 -0.3155
23760SOL    HW172721   5.340   2.286   8.525 -0.3097  0.1299  0.4663
23760SOL    HW272722   5.440   2.394   8.488  1.2479 -1.1424  0.8323
23761SOL     OW72723   3.801   5.300   3.196  0.0059 -0.0198 -0.8760
23761SOL    HW172724   3.866   5.350   3.247 -0.2878  0.4533 -0.9663
23761SOL    HW272725   3.718   5.317   3.240 -0.0193 -0.8591 -0.5888
23762SOL     OW72726   0.376   1.272   6.798  0.5943 -0.3930 -0.6402
23762SOL    HW172727   0.321   1.202   6.834 -0.0270  0.8260  0.8885
23762SOL    HW272728   0.335   1.353   6.829  2.2104  0.6144 -1.0189
23763SOL     OW72729   7.174   7.141  12.254  0.0539  0.4075 -0.1093
23763SOL    HW172730   7.187   7.078  12.184 -1.5610 -1.4275  1.1387
23763SOL    HW272731   7.261   7.175  12.272  1.0561 -1.7770 -0.5675
23764SOL     OW72732   1.025   7.760   6.347 -0.0580 -0.5448  0.7529
23764SOL    HW172733   1.084   7.806   6.287  0.1320 -0.4845  0.9862
23764SOL    HW272734   0.941   7.760   6.302 -0.3456  1.0196  1.2390
23765SOL     OW72735   5.333   5.732   9.242  0.4895  0.0016  0.5762
23765SOL    HW172736   5.365   5.701   9.327 -0.1060 -1.0783  0.4212
23765SOL    HW272737   5.335   5.654   9.186  1.3872  0.8092 -0.5730
23766SOL     OW72738   5.662   5.582   5.824  0.1327 -0.0580  0.0078
23766SOL    HW172739   5.683   5.508   5.767 -3.0525 -1.0061 -0.1478
23766SOL    HW272740   5.667   5.659   5.768 -0.4744 -0.6802 -0.9265
23767SOL     OW72741   1.543   5.890   2.763  0.9589 -0.0259 -0.4284
23767SOL    HW172742   1.531   5.979   2.795 -1.4754 -0.3039 -0.4045
23767SOL    HW272743   1.615   5.854   2.816  0.9091  1.3947  0.6298
23768SOL     OW72744   7.849   5.333   3.790 -0.1962  0.1939  0.4414
23768SOL    HW172745   7.827   5.284   3.869  0.3199  0.9181  1.0383
23768SOL    HW272746   7.904   5.273   3.739 -1.9042 -0.9225 -0.1863
23769SOL     OW72747   0.737   6.742   5.201  0.4894 -0.0408  0.2092
23769SOL    HW172748   0.704   6.693   5.277  1.0086 -1.8339 -0.6704
23769SOL    HW272749   0.671   6.809   5.186  0.5638  0.6322  2.4752
23770SOL     OW72750   5.665   1.803  10.629  0.6685 -0.2855  0.2489
23770SOL    HW172751   5.575   1.836  10.629 -0.1819 -2.3466  1.8250
23770SOL    HW272752   5.665   1.735  10.562  0.9423 -0.5087  0.4742
23771SOL     OW72753   2.197   2.849  12.423 -0.1682 -0.3122  0.0370
23771SOL    HW172754   2.218   2.829  12.515 -0.0464  0.8560  0.2755
23771SOL    HW272755   2.121   2.794  12.404 -1.0501  0.4138  1.2674
23772SOL     OW72756   4.602   2.164   2.437  0.0069  0.0089  1.0687
23772SOL    HW172757   4.569   2.252   2.418 -0.1991  0.2641  2.4952
23772SOL    HW272758   4.524   2.112   2.452  0.1468 -0.2963  0.7500
23773SOL     OW72759   6.276   5.398   6.675 -0.0581  0.1355  0.1771
23773SOL    HW172760   6.210   5.334   6.700  0.6277 -0.5469  0.2592
23773SOL    HW272761   6.359   5.360   6.704  0.3340  1.1856  0.4812
23774SOL     OW72762   5.060   2.436   8.324 -0.1577 -0.1301  0.2741
23774SOL    HW172763   5.123   2.480   8.267  0.6577 -0.0483  1.2075
23774SOL    HW272764   5.038   2.355   8.278  0.5069 -0.0811 -0.1432
23775SOL     OW72765   7.696   1.710  11.460 -0.0388 -0.3312  0.4025
23775SOL    HW172766   7.614   1.662  11.445 -0.7183  0.9678 -0.2687
23775SOL    HW272767   7.668   1.791  11.504  0.5519  1.2046 -1.8717
23776SOL     OW72768   7.040   4.641   6.317  0.2773 -0.5351 -0.0294
23776SOL    HW172769   7.125   4.609   6.286  0.0561 -0.6848 -0.5007
23776SOL    HW272770   7.016   4.708   6.253  0.0467 -0.4871  0.1098
23777SOL     OW72771   7.200   1.326   6.260 -0.0514 -0.1836 -0.3058
23777SOL    HW172772   7.105   1.325   6.258 -0.2572  1.5421  2.7363
23777SOL    HW272773   7.226   1.393   6.197 -0.6481 -1.7097 -2.3011
23778SOL     OW72774   6.848   5.261   1.767  0.1357 -0.1464  0.7588
23778SOL    HW172775   6.898   5.237   1.689  0.2706  0.5641  0.6239
23778SOL    HW272776   6.798   5.338   1.741 -0.3222 -0.2980  1.1788
23779SOL     OW72777   6.325   1.199   4.472  0.0240  0.3843  0.2086
23779SOL    HW172778   6.366   1.252   4.540 -0.2183  0.0716  0.6048
23779SOL    HW272779   6.398   1.156   4.428  0.3181  1.8784 -0.8442
23780SOL     OW72780   2.302   6.582  11.073  0.1081  0.5725 -0.1219
23780SOL    HW172781   2.359   6.629  11.134  0.5322 -0.5175  0.3499
23780SOL    HW272782   2.355   6.507  11.044 -0.7016  0.1423 -0.5164
23781SOL     OW72783   2.594   2.865   5.957 -0.0545 -0.1196  0.4815
23781SOL    HW172784   2.639   2.791   5.918  0.7895 -0.3427  1.7969
23781SOL    HW272785   2.502   2.841   5.956  0.0047 -0.3617 -0.7821
23782SOL     OW72786   3.767   6.802   5.321 -0.3420 -0.0431  0.2537
23782SOL    HW172787   3.853   6.842   5.333  0.6112 -1.4355 -1.4711
23782SOL    HW272788   3.774   6.716   5.364 -0.8978 -0.1582  0.1302
23783SOL     OW72789   1.434   2.012   5.568 -0.5091  0.4412  0.3567
23783SOL    HW172790   1.502   2.067   5.530 -1.3523  0.3526 -1.3716
23783SOL    HW272791   1.388   2.070   5.629  0.5724  0.7307  0.9227
23784SOL     OW72792   0.537   7.298   3.642  0.3083  0.0202  0.0273
23784SOL    HW172793   0.544   7.289   3.547  0.7475 -0.4801  0.1006
23784SOL    HW272794   0.548   7.392   3.658 -0.6902  0.2334 -0.4782
23785SOL     OW72795   7.122   0.269   8.865  0.0113 -0.0182 -0.4558
23785SOL    HW172796   7.183   0.234   8.800  1.6942 -0.9849  1.5432
23785SOL    HW272797   7.093   0.352   8.827 -0.2513 -1.2001 -3.0841
23786SOL     OW72798   4.450   4.731  10.680  0.3330  0.3812  0.8920
23786SOL    HW172799   4.465   4.768  10.593  0.9622  0.0701  0.8613
23786SOL    HW272800   4.357   4.746  10.697  0.4146  1.3125  0.5759
23787SOL     OW72801   4.153   2.033   2.899  0.0953 -0.1177 -0.0250
23787SOL    HW172802   4.111   2.066   2.819 -1.0342 -1.8430 -0.1922
23787SOL    HW272803   4.214   1.966   2.867 -1.1619 -1.6091  0.5825
23788SOL     OW72804   7.696   5.189   8.748 -0.5500 -0.1002 -0.2590
23788SOL    HW172805   7.733   5.233   8.671  1.5636  0.2391  0.8514
23788SOL    HW272806   7.604   5.176   8.727 -0.0081 -0.1982 -2.9038
23789SOL     OW72807   2.002   1.692   7.615  0.2869  0.0270  0.8928
23789SOL    HW172808   2.061   1.632   7.662  1.0767 -0.4684 -0.6642
23789SOL    HW272809   2.036   1.694   7.526  0.1682  2.6880  0.8488
23790SOL     OW72810   4.862   3.779   4.360  0.2427 -0.2943  0.2999
23790SOL    HW172811   4.876   3.812   4.271 -0.9510  2.4010  0.9830
23790SOL    HW272812   4.926   3.709   4.371  3.1130  1.8344 -1.3850
23791SOL     OW72813   1.124   6.891   0.503  0.2040  0.1888 -0.0756
23791SOL    HW172814   1.180   6.898   0.581  1.5312 -1.2178 -0.8595
23791SOL    HW272815   1.035   6.892   0.537  0.7529  0.0098  1.4218
23792SOL     OW72816   7.499   3.283   7.610  0.5239 -0.2687  0.0201
23792SOL    HW172817   7.448   3.306   7.688 -2.0556 -1.6484 -1.1306
23792SOL    HW272818   7.433   3.268   7.542  2.3916 -3.0014 -1.3694
23793SOL     OW72819   2.835   3.282  12.189  0.0431  0.3159  0.3426
23793SOL    HW172820   2.858   3.320  12.104 -0.0105 -0.9486 -0.2511
23793SOL    HW272821   2.918   3.281  12.238  0.3791 -0.2992 -0.2308
23794SOL     OW72822   1.399   1.677   7.642 -0.2509 -0.4922  0.0897
23794SOL    HW172823   1.377   1.769   7.654 -2.6522 -1.2185  2.0846
23794SOL    HW272824   1.361   1.654   7.558  0.5117  0.3574 -0.5033
23795SOL     OW72825   5.724   6.707   9.186 -0.2843  0.1712  0.4812
23795SOL    HW172826   5.797   6.655   9.219 -0.0055 -0.1835 -0.6517
23795SOL    HW272827   5.704   6.670   9.100 -1.9830  0.0921  0.8685
23796SOL     OW72828   0.721   5.583  10.831  0.7569  0.6481 -0.2592
23796SOL    HW172829   0.689   5.647  10.895 -0.0470 -1.3833  1.5096
23796SOL    HW272830   0.653   5.581  10.763  1.0152  1.9621 -0.5670
23797SOL     OW72831   5.671   5.755   6.521 -0.0114 -0.5937 -0.5917
23797SOL    HW172832   5.671   5.743   6.616 -0.5819 -3.0225 -0.8455
23797SOL    HW272833   5.739   5.696   6.489  0.9915  1.0464 -1.6733
23798SOL     OW72834   5.258   0.205   7.502 -0.2215  0.1672 -0.5409
23798SOL    HW172835   5.230   0.230   7.590 -0.2049 -1.0647 -0.1746
23798SOL    HW272836   5.343   0.249   7.491 -1.2990  2.3040 -0.9082
23799SOL     OW72837   0.312   3.310   9.223  0.7032  0.0071 -0.0691
23799SOL    HW172838   0.242   3.331   9.162  0.2795 -0.7991  0.1362
23799SOL    HW272839   0.273   3.323   9.310  0.8405 -0.3518  0.0447
23800SOL     OW72840   3.616   3.991   3.192 -0.2099  0.8036 -0.0787
23800SOL    HW172841   3.584   3.953   3.109 -0.9510 -1.0696  0.9953
23800SOL    HW272842   3.616   4.085   3.177 -0.7310  0.5355 -2.0760
23801SOL     OW72843   2.350   4.177   8.156  0.3011 -0.3382  0.2999
23801SOL    HW172844   2.296   4.114   8.108  1.7402 -0.5387 -1.1591
23801SOL    HW272845   2.421   4.125   8.193  0.9175  0.2581 -0.0115
23802SOL     OW72846   3.423   0.429   0.779 -0.3830 -0.1719  0.1512
23802SOL    HW172847   3.442   0.439   0.873 -1.4707  0.2922  0.3306
23802SOL    HW272848   3.447   0.514   0.741  1.1889 -0.7384 -0.2142
23803SOL     OW72849   7.387   5.397   3.777  0.1608  0.4431  0.0075
23803SOL    HW172850   7.324   5.360   3.715  1.1245  0.3539 -0.9530
23803SOL    HW272851   7.357   5.487   3.791  0.0375  0.5335 -0.7715
23804SOL     OW72852   7.182   4.767   0.591 -0.2711  0.3140 -0.2369
23804SOL    HW172853   7.204   4.772   0.498 -0.0200  0.6617 -0.1640
23804SOL    HW272854   7.188   4.858   0.622  1.4037 -0.0111  0.5050
23805SOL     OW72855   4.983   1.694  12.254  0.3024  0.5653 -0.1552
23805SOL    HW172856   5.057   1.754  12.250  0.8460  0.2090  2.3560
23805SOL    HW272857   5.015   1.613  12.215  0.7781  0.8399 -0.3404
23806SOL     OW72858   4.416   1.065   3.095 -0.1312 -0.1866 -0.5330
23806SOL    HW172859   4.384   0.982   3.060  3.4850 -1.6647 -0.7416
23806SOL    HW272860   4.430   1.119   3.017  2.4960 -1.4211 -1.0370
23807SOL     OW72861   1.835   7.644   9.697  0.0647  0.2084 -0.3789
23807SOL    HW172862   1.893   7.572   9.724  3.3904  3.4215  2.0084
23807SOL    HW272863   1.876   7.678   9.617 -0.4187  0.5447 -0.4816
23808SOL     OW72864   2.067   5.943   9.460  0.0873 -0.6349  0.0524
23808SOL    HW172865   2.124   5.868   9.478  1.4052  0.6236  1.4901
23808SOL    HW272866   1.998   5.937   9.527  0.3666 -0.4162  0.3654
23809SOL     OW72867   3.722   0.326  10.893  0.4931  0.1697 -0.1629
23809SOL    HW172868   3.678   0.394  10.843  3.2351  1.3940 -1.1258
23809SOL    HW272869   3.673   0.320  10.975 -1.6590  1.0493 -1.3150
23810SOL     OW72870   2.975   3.026   7.550 -0.2593 -0.7459 -0.5487
23810SOL    HW172871   2.937   3.113   7.556 -0.5312 -0.8758 -0.3709
23810SOL    HW272872   3.019   3.013   7.634  0.7664 -0.3301 -0.9977
23811SOL     OW72873   0.301   7.035   5.864  0.4253  0.3562 -0.4853
23811SOL    HW172874   0.321   6.948   5.900  1.6216  0.4557 -0.8489
23811SOL    HW272875   0.324   7.096   5.933 -1.0095  0.3640 -0.0025
23812SOL     OW72876   3.918   2.912   0.528  0.3925  0.1259  0.1430
23812SOL    HW172877   3.896   2.992   0.576 -2.2445 -0.2671 -0.2282
23812SOL    HW272878   3.837   2.861   0.531  0.9053 -0.9878 -2.6465
23813SOL     OW72879   6.962   4.353   7.201  0.1856 -0.4085 -0.0809
23813SOL    HW172880   6.990   4.265   7.178  3.4461  0.2793  0.7111
23813SOL    HW272881   7.042   4.405   7.200 -0.7434  1.5405  4.0043
23814SOL     OW72882   7.944   5.643  12.265 -0.3200 -0.0598  0.2239
23814SOL    HW172883   7.865   5.687  12.297 -0.5113  0.2120 -0.6130
23814SOL    HW272884   7.915   5.594  12.188 -0.0671 -1.4886  0.9922
23815SOL     OW72885   1.020   4.859   2.408  0.5999  0.4425 -0.0671
23815SOL    HW172886   1.062   4.799   2.470 -0.9495  0.4459  1.0440
23815SOL    HW272887   1.032   4.818   2.323  2.9978  0.5505  0.1484
23816SOL     OW72888   6.112   7.569  11.378 -0.3508  0.1192 -0.0860
23816SOL    HW172889   6.183   7.504  11.384 -0.7342 -1.0523 -4.4117
23816SOL    HW272890   6.032   7.517  11.383 -0.9552  1.1881  2.7432
23817SOL     OW72891   3.729   4.861   0.220 -0.1221  0.1917 -0.1699
23817SOL    HW172892   3.815   4.840   0.258  1.5600  1.0817 -3.1073
23817SOL    HW272893   3.707   4.946   0.257 -0.0282 -0.2625  0.9882
23818SOL     OW72894   0.922   2.194   8.977  0.1857 -0.0811  0.5258
23818SOL    HW172895   0.860   2.132   8.939 -2.1481  1.7333  1.1082
23818SOL    HW272896   1.006   2.172   8.937 -0.7876 -2.6968 -0.2707
23819SOL     OW72897   0.584   4.380  12.193 -0.5639  0.3954 -0.4582
23819SOL    HW172898   0.583   4.299  12.142 -0.2984 -0.4600  0.8467
23819SOL    HW272899   0.598   4.449  12.128 -0.4358 -0.6276 -1.5578
23820SOL     OW72900   5.881   3.268   3.070  0.3443 -0.0356  0.7193
23820SOL    HW172901   5.972   3.240   3.058 -0.2399 -1.3224 -1.0430
23820SOL    HW272902   5.854   3.300   2.984 -0.7736  0.6795  1.3131
23821SOL     OW72903   3.170   4.774   4.037  0.6355  0.1289  0.0755
23821SOL    HW172904   3.108   4.842   4.062 -0.0948 -0.3138 -0.5172
23821SOL    HW272905   3.216   4.811   3.961 -0.4053 -0.3897 -0.8308
23822SOL     OW72906   4.349   4.541  12.097 -1.0631 -0.1788 -0.8449
23822SOL    HW172907   4.327   4.603  12.167 -1.6511 -0.9970 -0.2873
23822SOL    HW272908   4.428   4.577  12.057 -1.0792  0.6390 -0.1700
23823SOL     OW72909   2.111   4.302   0.763 -0.0285 -0.1891 -0.3255
23823SOL    HW172910   2.179   4.363   0.790 -0.2415 -0.1466  0.1196
23823SOL    HW272911   2.039   4.317   0.824 -0.0819 -0.8931 -0.2075
23824SOL     OW72912   1.827   3.198   3.935  0.3901 -0.3981  0.1020
23824SOL    HW172913   1.898   3.148   3.894  0.8763 -1.0587  1.7041
23824SOL    HW272914   1.783   3.136   3.992 -1.1686  0.1492 -0.4315
23825SOL     OW72915   3.858   3.522   2.822 -0.3311 -0.3906 -0.1114
23825SOL    HW172916   3.828   3.490   2.907 -1.9804  1.2165 -0.0231
23825SOL    HW272917   3.889   3.444   2.777 -1.5358 -1.6467  1.1188
23826SOL     OW72918   5.487   0.129  12.166 -0.2087  0.3982  0.3381
23826SOL    HW172919   5.528   0.066  12.225 -0.2633 -0.2146 -0.2551
23826SOL    HW272920   5.469   0.078  12.087  1.8356  1.6978 -1.0490
23827SOL     OW72921   0.212   5.973   5.891 -0.2879 -0.5132 -0.6063
23827SOL    HW172922   0.207   5.887   5.849  0.3714 -1.0113  0.3053
23827SOL    HW272923   0.182   6.034   5.824  1.1128 -1.2389 -1.9520
23828SOL     OW72924   7.492   5.288   8.018 -0.0813  0.2660 -0.1968
23828SOL    HW172925   7.500   5.224   8.088  0.5449  0.5417 -0.0065
23828SOL    HW272926   7.563   5.267   7.957 -0.4163  0.2352 -0.5869
23829SOL     OW72927   3.346   6.503   4.107 -0.2793 -0.3126  0.1906
23829SOL    HW172928   3.284   6.448   4.156 -0.6573  0.5193  0.6739
23829SOL    HW272929   3.339   6.589   4.149 -0.8329  0.5170 -1.5156
23830SOL     OW72930   5.785   1.588   0.543 -0.3504  0.0628  0.1283
23830SOL    HW172931   5.743   1.674   0.546  0.4659  0.5172 -0.9976
23830SOL    HW272932   5.711   1.526   0.542 -0.9416  0.6444  2.3288
23831SOL     OW72933   0.203   2.476  10.638 -0.7151 -0.0155  0.2926
23831SOL    HW172934   0.159   2.391  10.637 -1.1361  0.1627 -2.0512
23831SOL    HW272935   0.134   2.540  10.620  0.2761  0.2941 -3.1523
23832SOL     OW72936   7.886   1.287  10.725 -0.0212 -0.2319 -0.2992
23832SOL    HW172937   7.811   1.247  10.680 -0.7398  1.6635 -0.9218
23832SOL    HW272938   7.847   1.333  10.799  0.4348  1.1354 -0.8737
23833SOL     OW72939   0.143   6.172   6.117  0.1516 -0.3884 -0.1811
23833SOL    HW172940   0.094   6.182   6.199  0.5327  0.1045 -0.0064
23833SOL    HW272941   0.162   6.262   6.090  1.2224 -0.5724 -0.0832
23834SOL     OW72942   7.705   1.590   9.993  0.5171 -0.1164 -0.2637
23834SOL    HW172943   7.736   1.657   9.932  2.2030 -1.2317 -0.7104
23834SOL    HW272944   7.700   1.636  10.077  0.1160  0.9471 -0.8474
23835SOL     OW72945   2.224   4.956   8.006 -0.0239 -0.3081 -0.0668
23835SOL    HW172946   2.153   4.940   8.068 -0.7642  1.1221 -0.4862
23835SOL    HW272947   2.198   4.910   7.926 -0.0368 -0.5198  0.0584
23836SOL     OW72948   5.764   3.549   0.071  0.3751  0.3447  0.7721
23836SOL    HW172949   5.704   3.475   0.066 -0.4267  1.0434 -0.4375
23836SOL    HW272950   5.712   3.620   0.108  1.0022  0.4446  1.4867
23837SOL     OW72951   2.561   4.645   8.213 -0.4477  0.5588  0.3080
23837SOL    HW172952   2.554   4.621   8.121 -0.3517  0.4295  0.3345
23837SOL    HW272953   2.501   4.719   8.223 -0.6299  0.4254  0.1959
23838SOL     OW72954   5.857   4.624   5.068  0.0260 -0.5954  0.0791
23838SOL    HW172955   5.786   4.632   5.131  0.0441  2.2643 -0.1680
23838SOL    HW272956   5.818   4.649   4.984  1.1564  0.4831 -0.1543
23839SOL     OW72957   3.062   6.082   6.118 -0.0021 -0.4403 -0.1585
23839SOL    HW172958   3.119   6.086   6.042 -2.5726 -2.8387 -2.4079
23839SOL    HW272959   2.984   6.133   6.093 -0.0331  0.5794  1.7900
23840SOL     OW72960   7.501   5.458   2.549  0.3857  0.3765 -0.5362
23840SOL    HW172961   7.594   5.472   2.531  0.7549  0.8620  1.4707
23840SOL    HW272962   7.456   5.525   2.497  1.2472  0.9037 -0.6241
23841SOL     OW72963   7.796   0.481  11.512 -0.0191 -0.4864  0.1492
23841SOL    HW172964   7.827   0.408  11.567 -0.5448  0.2569  1.4786
23841SOL    HW272965   7.822   0.559  11.560 -0.9547  0.1864 -0.4194
23842SOL     OW72966   1.253   5.510   9.571 -1.2278 -0.0245 -0.4050
23842SOL    HW172967   1.348   5.521   9.576 -1.4399  1.5074  1.2410
23842SOL    HW272968   1.235   5.496   9.478  0.5050  0.7775 -0.8936
23843SOL     OW72969   4.254   4.297  11.794 -0.2235 -0.6081 -1.1069
23843SOL    HW172970   4.316   4.359  11.756 -1.9823  1.7692 -0.3311
23843SOL    HW272971   4.191   4.280  11.723 -0.6975 -0.1465 -0.7997
23844SOL     OW72972   3.668   5.965   0.515 -0.3529  0.5933 -0.2550
23844SOL    HW172973   3.632   5.921   0.592 -0.4296  1.6633  0.3289
23844SOL    HW272974   3.718   5.896   0.470 -1.5409 -0.4133 -0.0670
23845SOL     OW72975   3.361   2.094   8.681  0.2302  0.1339  0.1407
23845SOL    HW172976   3.284   2.150   8.688 -1.8101 -2.6353  2.6907
23845SOL    HW272977   3.423   2.129   8.746 -0.2577  0.5057  0.4104
23846SOL     OW72978   1.733   6.283  11.980 -0.5284  0.0104 -0.0466
23846SOL    HW172979   1.728   6.308  11.888  0.6794 -0.1255 -0.1642
23846SOL    HW272980   1.772   6.359  12.024  1.4860 -0.9013 -0.1213
23847SOL     OW72981   6.548   5.772   5.953 -0.2346  0.2886 -0.3248
23847SOL    HW172982   6.518   5.863   5.959  1.3809  0.8379 -0.0358
23847SOL    HW272983   6.637   5.778   5.918  0.5786 -1.0332  1.3645
23848SOL     OW72984   1.093   5.611   6.277  0.0116  0.3888  0.1073
23848SOL    HW172985   1.016   5.639   6.227  0.9145 -1.1178 -2.2957
23848SOL    HW272986   1.130   5.692   6.311 -0.4217  1.5796 -2.0741
23849SOL     OW72987   5.678   0.694  11.391 -0.2886 -0.0383 -0.1361
23849SOL    HW172988   5.752   0.735  11.435  1.0164 -1.9214 -0.4556
23849SOL    HW272989   5.605   0.755  11.405  0.7867  0.8586  2.0288
23850SOL     OW72990   5.737   2.753   0.756 -0.6952  0.2143  0.6426
23850SOL    HW172991   5.770   2.692   0.823  0.3222 -0.9681 -0.8591
23850SOL    HW272992   5.816   2.798   0.725 -0.9823 -0.0663 -0.5227
23851SOL     OW72993   1.052   0.194  11.876  0.0464 -0.0230  0.8498
23851SOL    HW172994   0.961   0.195  11.848  1.0903 -1.5830 -3.4513
23851SOL    HW272995   1.089   0.275  11.840  0.6556 -0.1235  1.2322
23852SOL     OW72996   2.094   4.473   7.367 -0.4269  0.1895 -0.0140
23852SOL    HW172997   2.115   4.507   7.454  1.6421  0.7570 -0.6534
23852SOL    HW272998   2.070   4.551   7.317 -1.8277 -0.1635  0.0751
23853SOL     OW72999   6.630   4.163   4.975 -0.5317  0.1112  0.1386
23853SOL    HW173000   6.626   4.174   5.070  3.3877  0.2807  0.4706
23853SOL    HW273001   6.595   4.076   4.959 -0.5215 -0.2485  1.8521
23854SOL     OW73002   4.926   4.157  10.231 -0.1996 -0.0577 -0.1554
23854SOL    HW173003   4.941   4.115  10.146 -1.1494 -1.2353  0.2358
23854SOL    HW273004   4.889   4.242  10.209  2.4166  0.9555 -0.9837
23855SOL     OW73005   7.173   6.055   9.638  0.2113  0.1386 -0.5590
23855SOL    HW173006   7.181   6.028   9.729  0.6656 -1.2941 -0.9921
23855SOL    HW273007   7.160   5.973   9.590  0.3772  0.8300 -1.8204
23856SOL     OW73008   0.282   0.090   9.022 -0.3956 -0.2647  0.0515
23856SOL    HW173009   0.277   0.020   9.086 -3.0111  1.5931  2.1357
23856SOL    HW273010   0.339   0.156   9.061 -1.3618  0.5418  0.1666
23857SOL     OW73011   1.943   5.939   5.867 -0.2436  0.5030  0.4034
23857SOL    HW173012   2.013   5.897   5.917  0.2509  0.8252 -0.0007
23857SOL    HW273013   1.886   5.978   5.933  0.7259  1.4352  0.7224
23858SOL     OW73014   5.231   2.306   4.931 -0.0921  0.1534 -0.3320
23858SOL    HW173015   5.144   2.267   4.943  0.3182 -0.5072  0.5760
23858SOL    HW273016   5.256   2.283   4.842 -0.1432 -1.0738 -0.0379
23859SOL     OW73017   7.900   5.077   1.566  0.0778 -0.9207  0.1357
23859SOL    HW173018   7.967   5.015   1.539  0.3353 -0.8484  0.6096
23859SOL    HW273019   7.862   5.108   1.483  1.3981 -0.1121 -0.1969
23860SOL     OW73020   1.926   0.265   7.379 -0.0386  0.3327 -0.3545
23860SOL    HW173021   1.987   0.201   7.416 -0.6494  0.1277  0.2948
23860SOL    HW273022   1.981   0.318   7.321  0.5725 -0.4575 -0.5182
23861SOL     OW73023   0.163   3.293   6.992  0.0297 -0.0411  0.3787
23861SOL    HW173024   0.170   3.202   6.965 -0.4027  0.0116  0.0899
23861SOL    HW273025   0.236   3.305   7.054  0.6087 -0.3468 -0.2310
23862SOL     OW73026   4.936   6.782   8.867 -0.0801  0.1035 -0.2370
23862SOL    HW173027   4.870   6.765   8.799 -1.8602  1.2919  1.1161
23862SOL    HW273028   4.991   6.851   8.830 -1.5525  1.3521 -0.2069
23863SOL     OW73029   1.896   5.412  11.043  0.9733 -0.7189  0.5090
23863SOL    HW173030   1.861   5.418  11.132 -0.1698 -0.2751  0.0419
23863SOL    HW273031   1.904   5.503  11.014 -0.2724 -0.8863 -0.4388
23864SOL     OW73032   3.253   2.857   8.778  0.5096  0.3059  0.0228
23864SOL    HW173033   3.234   2.803   8.701 -1.5566  0.6313  0.2446
23864SOL    HW273034   3.343   2.885   8.766  0.6318 -0.6692 -1.6513
23865SOL     OW73035   6.817   6.660   6.707 -0.4672 -0.4007  0.3822
23865SOL    HW173036   6.891   6.600   6.713  0.4684  0.3794 -2.1145
23865SOL    HW273037   6.778   6.642   6.621 -2.8368 -0.3391  1.3560
23866SOL     OW73038   4.286   5.141   6.614 -0.4615  0.1906 -0.0367
23866SOL    HW173039   4.257   5.078   6.548  0.8062  0.9983 -1.4383
23866SOL    HW273040   4.208   5.159   6.666 -2.2141  1.3382 -2.8402
23867SOL     OW73041   1.841   3.372   6.619 -0.1070 -0.1810 -0.7342
23867SOL    HW173042   1.850   3.456   6.574 -1.3649 -0.0361 -0.7565
23867SOL    HW273043   1.928   3.354   6.655 -0.3907  2.5344  1.7199
23868SOL     OW73044   5.674   3.848   4.544  0.5915 -0.5775 -0.0995
23868SOL    HW173045   5.732   3.813   4.612  1.0425 -0.7851 -0.5889
23868SOL    HW273046   5.723   3.838   4.463  0.6452  1.0189 -0.2867
23869SOL     OW73047   1.677   0.835   6.447 -0.2523  0.0764 -0.1052
23869SOL    HW173048   1.694   0.788   6.528 -1.9139 -1.0371 -0.3633
23869SOL    HW273049   1.629   0.913   6.474 -0.9208 -0.3613 -0.0262
23870SOL     OW73050   7.244   6.808   5.907 -0.5513 -0.2805 -0.2725
23870SOL    HW173051   7.207   6.894   5.923  1.0611  0.2486  0.9124
23870SOL    HW273052   7.310   6.821   5.839 -1.1330 -0.8140 -0.9466
23871SOL     OW73053   3.519   0.371   7.041  0.2291 -0.2837 -0.1940
23871SOL    HW173054   3.424   0.386   7.038  0.4408  1.2233 -0.3428
23871SOL    HW273055   3.545   0.368   6.949  0.5410  1.0448 -0.1716
23872SOL     OW73056   3.169   7.110   0.198  0.0773 -0.6994  0.2546
23872SOL    HW173057   3.142   7.201   0.209  0.7954 -0.2595 -1.2995
23872SOL    HW273058   3.263   7.111   0.216  0.3193 -0.8793 -0.9433
23873SOL     OW73059   0.402   4.680   7.648 -0.4201  0.1061 -1.1412
23873SOL    HW173060   0.330   4.714   7.701 -0.6270 -1.5291 -0.3077
23873SOL    HW273061   0.442   4.613   7.703  0.6273 -0.2394 -2.2916
23874SOL     OW73062   5.574   2.765   7.549  0.2622  0.2002  0.2481
23874SOL    HW173063   5.646   2.795   7.495  0.1422  1.4671  0.7472
23874SOL    HW273064   5.616   2.728   7.627  0.3804  0.6717  0.4090
23875SOL     OW73065   3.022   7.221  12.172  0.4619  0.1498  0.6782
23875SOL    HW173066   3.102   7.262  12.140  0.1547  2.2121  2.3265
23875SOL    HW273067   3.050   7.134  12.202  1.3734 -0.4755 -1.7598
23876SOL     OW73068   6.974   1.946   6.901  0.1531 -0.1729  0.5664
23876SOL    HW173069   6.954   1.945   6.808 -3.2790 -2.2907  1.1357
23876SOL    HW273070   6.979   2.038   6.924 -1.1598  0.4325 -1.3612
23877SOL     OW73071   7.909   5.928   1.865  0.1193 -0.0266  0.0971
23877SOL    HW173072   7.925   6.019   1.891  3.6861 -0.1283 -1.1592
23877SOL    HW273073   7.815   5.924   1.849 -0.2414  3.3365  0.5328
23878SOL     OW73074   1.852   7.072   2.546 -0.2843 -0.2583  0.0238
23878SOL    HW173075   1.782   7.127   2.510  0.5165  0.2541 -0.7929
23878SOL    HW273076   1.898   7.130   2.607  0.5901  0.0278 -0.8747
23879SOL     OW73077   6.463   1.433   8.149 -0.1791 -0.7088 -0.3810
23879SOL    HW173078   6.374   1.461   8.127 -0.1068  0.1374  0.3578
23879SOL    HW273079   6.463   1.426   8.244  0.8410  0.3765 -0.2746
23880SOL     OW73080   5.278   1.450   4.852 -0.5264 -0.1797 -0.0812
23880SOL    HW173081   5.366   1.471   4.821 -0.0215 -2.3913 -0.3052
23880SOL    HW273082   5.232   1.420   4.774 -0.6618 -1.4354  0.4565
23881SOL     OW73083   1.207   7.653  11.165 -0.3412 -0.1415 -0.0152
23881SOL    HW173084   1.167   7.624  11.083 -1.8682  1.0405  0.2513
23881SOL    HW273085   1.154   7.612  11.233  0.4075 -0.4627  0.3820
23882SOL     OW73086   7.657   1.218  10.633  0.3650  0.6377 -0.4837
23882SOL    HW173087   7.650   1.169  10.551  0.5365  0.6205 -0.4899
23882SOL    HW273088   7.572   1.208  10.675  0.3308  0.5098 -0.5839
23883SOL     OW73089   4.921   1.739   3.187  0.0565 -0.4490 -0.2935
23883SOL    HW173090   4.990   1.714   3.248  0.4235 -0.0644 -0.5476
23883SOL    HW273091   4.964   1.797   3.124 -1.0470  2.0704  1.1212
23884SOL     OW73092   7.167   2.113  10.525  0.0699  0.5860 -0.0260
23884SOL    HW173093   7.124   2.083  10.606  0.6341 -0.2791 -0.0351
23884SOL    HW273094   7.164   2.209  10.531  0.4833  0.5439  1.2372
23885SOL     OW73095   2.829   4.847  11.365  0.0060  0.0572 -0.2314
23885SOL    HW173096   2.755   4.884  11.317  0.8716 -1.6426 -3.1241
23885SOL    HW273097   2.818   4.752  11.356  1.8857 -0.2529  0.3067
23886SOL     OW73098   1.542   7.254   5.537 -0.2051  0.1016 -0.6517
23886SOL    HW173099   1.546   7.273   5.631 -0.1050  1.2324 -0.8776
23886SOL    HW273100   1.633   7.237   5.513 -0.2203 -0.1061 -0.5716
23887SOL     OW73101   7.238   4.896   5.741  0.2843 -0.1237 -0.4335
23887SOL    HW173102   7.207   4.985   5.761 -1.2764 -0.1884 -2.2715
23887SOL    HW273103   7.256   4.857   5.826 -1.7152  1.0162  0.5749
23888SOL     OW73104   0.672   1.539   0.487 -0.2272  0.2684  0.3371
23888SOL    HW173105   0.756   1.528   0.442 -0.7410 -0.2659 -0.5109
23888SOL    HW273106   0.617   1.469   0.452 -0.4866 -0.5079  2.2055
23889SOL     OW73107   4.359   3.786   7.032 -0.4510  0.3170 -0.6377
23889SOL    HW173108   4.402   3.712   7.075 -0.2164  0.3818 -0.7579
23889SOL    HW273109   4.291   3.813   7.094 -0.1748  0.3522 -0.3469
23890SOL     OW73110   3.388   2.403   1.473  0.0249  0.6455 -0.0272
23890SOL    HW173111   3.428   2.401   1.386  0.4828  0.4143  0.1795
23890SOL    HW273112   3.314   2.462   1.464 -0.5756 -0.2036 -0.8398
23891SOL     OW73113   5.878   6.554   6.556  0.3277 -0.7793  0.3398
23891SOL    HW173114   5.923   6.611   6.618 -0.6783  0.1598  0.2457
23891SOL    HW273115   5.903   6.465   6.581  3.3504 -0.2765 -0.5904
23892SOL     OW73116   3.765   2.980   9.649  0.3673 -0.0157  0.6976
23892SOL    HW173117   3.793   2.991   9.558 -1.3569  0.3288  0.1750
23892SOL    HW273118   3.819   3.042   9.698 -0.5645  1.8283 -0.4943
23893SOL     OW73119   7.217   7.202   8.444 -0.0608 -0.1266 -0.9647
23893SOL    HW173120   7.249   7.282   8.487 -0.5623 -0.5426  0.2500
23893SOL    HW273121   7.122   7.214   8.440 -0.0635 -0.3270 -1.4853
23894SOL     OW73122   3.542   3.307  10.327 -0.5365  0.1286 -0.3543
23894SOL    HW173123   3.486   3.345  10.258  0.3837  0.3859 -0.9743
23894SOL    HW273124   3.492   3.231  10.358 -1.0647  0.1156 -1.1796
23895SOL     OW73125   3.710   0.811   4.721 -0.0077  0.1089  0.0108
23895SOL    HW173126   3.739   0.726   4.689 -0.4313 -0.0627  0.0779
23895SOL    HW273127   3.633   0.832   4.668  0.5278  0.8004 -0.5232
23896SOL     OW73128   1.116   3.765   2.694  0.4081 -0.0323  0.1025
23896SOL    HW173129   1.033   3.812   2.705  0.3526 -0.2099  0.4489
23896SOL    HW273130   1.159   3.770   2.779  1.0025  0.5171 -0.2183
23897SOL     OW73131   6.219   1.829  11.991  0.3848 -0.4743 -0.1398
23897SOL    HW173132   6.192   1.761  12.053  0.9968 -0.7324 -0.1525
23897SOL    HW273133   6.263   1.782  11.921  0.6811 -0.0771 -0.2214
23898SOL     OW73134   5.871   7.959   0.081  0.2770  0.0968  0.0566
23898SOL    HW173135   5.953   7.971   0.033  0.8829 -0.9690  0.7682
23898SOL    HW273136   5.881   7.873   0.123 -0.4608  0.7379  1.6105
23899SOL     OW73137   0.796   6.874   4.860  1.0710  0.3579  0.1648
23899SOL    HW173138   0.868   6.832   4.814  2.0688  0.4645  1.5568
23899SOL    HW273139   0.733   6.803   4.875  0.8589  0.2690 -1.0790
23900SOL     OW73140   7.677   0.887   0.616  0.1402 -0.4562  0.0989
23900SOL    HW173141   7.600   0.860   0.665 -0.6345  0.6043 -0.4876
23900SOL    HW273142   7.738   0.919   0.682 -0.6323  0.3433  0.4441
23901SOL     OW73143   4.345   4.473  10.424  0.0882  0.2350  0.0312
23901SOL    HW173144   4.394   4.391  10.419 -2.0384 -1.0461 -1.4376
23901SOL    HW273145   4.379   4.525  10.351 -0.4955 -0.5201 -0.7958
23902SOL     OW73146   3.582   3.663  10.020  0.2620 -0.8466 -0.0239
23902SOL    HW173147   3.661   3.714  10.004  0.0727 -0.8192 -0.9431
23902SOL    HW273148   3.548   3.643   9.933 -1.3302  0.0685  0.3430
23903SOL     OW73149   1.118   2.414  10.969 -0.0752 -0.8273  0.3820
23903SOL    HW173150   1.027   2.407  11.000 -0.0717 -0.3061  0.5229
23903SOL    HW273151   1.133   2.334  10.920 -0.6788 -0.8337  0.1989
23904SOL     OW73152   1.395   3.570   9.088  0.0353  0.2306 -0.5591
23904SOL    HW173153   1.392   3.584   8.993 -0.1101 -0.3588 -0.6453
23904SOL    HW273154   1.376   3.477   9.099  1.9804 -0.1541 -0.0764
23905SOL     OW73155   7.161   4.917   6.945 -0.5647 -0.0355  0.2359
23905SOL    HW173156   7.146   4.855   6.873  0.5554  0.9474 -0.9072
23905SOL    HW273157   7.240   4.964   6.919  0.7277 -0.5979  2.8349
23906SOL     OW73158   7.910   1.920   7.340  0.3362  0.1796 -0.6963
23906SOL    HW173159   8.005   1.922   7.350  0.2721  0.9237 -0.1856
23906SOL    HW273160   7.886   2.011   7.323 -0.2214 -0.1043 -1.5104
23907SOL     OW73161   1.034   0.002   7.864 -0.1122  0.1604  0.9647
23907SOL    HW173162   1.078  -0.036   7.940  1.4332  1.2015  0.6303
23907SOL    HW273163   1.104   0.037   7.810 -1.0078 -1.8657 -1.7611
23908SOL     OW73164   7.394   3.022   2.526 -0.3277 -0.3379 -0.1903
23908SOL    HW173165   7.416   3.086   2.458 -0.8350  0.1043  0.0550
23908SOL    HW273166   7.471   2.966   2.531 -0.6948 -1.0753 -1.8995
23909SOL     OW73167   2.762   0.611   4.763  0.4877 -0.1347 -0.3091
23909SOL    HW173168   2.853   0.587   4.773  0.0244 -0.9918  3.0503
23909SOL    HW273169   2.757   0.652   4.677  3.8167 -0.8411 -0.9586
23910SOL     OW73170   6.604   7.250  11.071  0.2660  0.0623 -0.4974
23910SOL    HW173171   6.660   7.277  10.998  0.5383  0.6635 -0.0715
23910SOL    HW273172   6.578   7.161  11.049  2.1340 -0.5777 -0.2663
23911SOL     OW73173   3.943   0.504   0.320  0.5400  0.4327  0.4230
23911SOL    HW173174   4.033   0.495   0.348  1.5742  0.8943 -2.3942
23911SOL    HW273175   3.894   0.445   0.377  2.6590 -0.1984  1.7062
23912SOL     OW73176   5.058   4.013   9.121 -0.1090 -0.6721  0.1341
23912SOL    HW173177   5.050   3.965   9.203  1.5286  0.0575  0.7562
23912SOL    HW273178   5.145   4.052   9.124 -0.6263  0.6943 -1.2396
23913SOL     OW73179   7.788   4.861   6.108  0.5205  0.2770 -0.0513
23913SOL    HW173180   7.883   4.875   6.110  0.8416 -1.1548  3.8796
23913SOL    HW273181   7.753   4.923   6.172 -1.0329 -0.1225 -0.4705
23914SOL     OW73182   0.792   6.423   0.778 -0.3696 -0.0539 -0.7048
23914SOL    HW173183   0.773   6.505   0.732 -0.4879 -0.4130 -1.3028
23914SOL    HW273184   0.706   6.384   0.794 -0.2966 -0.2386 -0.7574
23915SOL     OW73185   7.602   4.261   0.811  0.5474  0.3970 -0.3576
23915SOL    HW173186   7.587   4.232   0.721 -0.9865 -2.3154  0.6635
23915SOL    HW273187   7.696   4.248   0.824  0.5202 -0.7068 -1.1037
23916SOL     OW73188   6.426   0.169   5.548  0.3140 -0.1733  0.5837
23916SOL    HW173189   6.417   0.248   5.494 -0.2104 -0.4954  0.1892
23916SOL    HW273190   6.518   0.145   5.539 -0.1190 -1.2381 -1.6572
23917SOL     OW73191   3.798   2.839   4.246  0.4174  0.1834 -0.0109
23917SOL    HW173192   3.813   2.926   4.285 -1.7184  0.6064 -0.0511
23917SOL    HW273193   3.828   2.849   4.155 -2.5787  1.9176 -0.9616
23918SOL     OW73194   0.334   2.806   8.494  0.4390  0.3960 -0.0631
23918SOL    HW173195   0.333   2.786   8.400 -0.3504 -0.6380  0.1404
23918SOL    HW273196   0.258   2.759   8.529 -0.1609  1.9814  0.8685
23919SOL     OW73197   2.552   0.805   5.971 -0.4967  0.0931 -0.2415
23919SOL    HW173198   2.600   0.782   6.050  1.7073 -2.3781 -2.1325
23919SOL    HW273199   2.466   0.765   5.982 -0.4163  0.2653  1.1187
23920SOL     OW73200   5.793   4.844  10.405  0.4043  0.0306  0.0030
23920SOL    HW173201   5.700   4.824  10.417 -0.0429  0.4973 -2.2107
23920SOL    HW273202   5.805   4.928  10.449  0.5912 -1.4123  2.9847
23921SOL     OW73203   6.704   3.043   4.938  0.0925  0.4536  0.0094
23921SOL    HW173204   6.722   2.980   5.008 -1.4378 -0.6346 -0.5394
23921SOL    HW273205   6.609   3.056   4.941  0.1967  1.5430 -0.9007
23922SOL     OW73206   6.627   6.457  12.152  0.5359 -0.0801 -0.0663
23922SOL    HW173207   6.600   6.371  12.120  1.2598 -0.3754  0.0909
23922SOL    HW273208   6.591   6.519  12.088 -4.5973  0.0661  2.4964
23923SOL     OW73209   7.158   5.734   2.059  0.5980  0.0600  0.4931
23923SOL    HW173210   7.166   5.664   1.995 -2.3636  0.5154 -0.5174
23923SOL    HW273211   7.211   5.806   2.024  0.6553 -0.4032 -0.3884
23924SOL     OW73212   5.292   3.599   9.032 -0.1332 -0.3533 -0.3938
23924SOL    HW173213   5.289   3.680   8.981  0.8697 -0.9763 -1.5081
23924SOL    HW273214   5.385   3.582   9.043 -0.2403 -2.4418 -2.0342
23925SOL     OW73215   1.892   6.562   9.655 -0.4669  0.3779 -0.2456
23925SOL    HW173216   1.838   6.630   9.695 -1.1649 -0.4289  0.2034
23925SOL    HW273217   1.845   6.480   9.671  0.0599 -0.1554 -1.3005
23926SOL     OW73218   1.344   7.345   3.652 -0.0348  0.3568  0.0259
23926SOL    HW173219   1.300   7.272   3.697 -0.3366  0.0284 -0.7898
23926SOL    HW273220   1.307   7.423   3.693 -0.5398  0.0658  0.1368
23927SOL     OW73221   6.128   5.165   3.229  0.5136 -0.6932 -0.5153
23927SOL    HW173222   6.173   5.115   3.161  1.1466 -2.2972  0.9913
23927SOL    HW273223   6.185   5.239   3.246  1.8210 -1.8341  0.2376
23928SOL     OW73224   1.214   3.097  12.381  0.1895 -0.0606 -0.7420
23928SOL    HW173225   1.234   3.191  12.375 -0.3082  0.2058  1.0546
23928SOL    HW273226   1.252   3.070  12.465 -0.4275 -1.2716 -0.8308
23929SOL     OW73227   0.359   1.377  11.819  0.0539 -0.2970 -0.2321
23929SOL    HW173228   0.310   1.350  11.741  0.4998 -0.0270 -0.6103
23929SOL    HW273229   0.347   1.472  11.823  0.9462 -0.1567 -0.6152
23930SOL     OW73230   4.535   2.731   5.107 -0.2509  0.0290 -0.2509
23930SOL    HW173231   4.530   2.733   5.203  2.0046 -0.8657 -0.0732
23930SOL    HW273232   4.465   2.670   5.081 -0.9392  0.3424  0.7902
23931SOL     OW73233   0.499   2.819   5.698  0.1121 -0.7752 -0.0655
23931SOL    HW173234   0.529   2.756   5.633  0.2032 -1.0684  0.2575
23931SOL    HW273235   0.488   2.768   5.778  2.0625 -0.0688  0.7298
23932SOL     OW73236   6.300   0.126   9.840  0.2569 -0.4216  0.5139
23932SOL    HW173237   6.335   0.163   9.759  0.6873  0.3390  1.0396
23932SOL    HW273238   6.332   0.036   9.840  1.7381  0.0794  0.6942
23933SOL     OW73239   2.713   6.225   2.877 -0.5398 -0.4609 -0.3158
23933SOL    HW173240   2.715   6.313   2.840  1.3958  0.0959  0.9621
23933SOL    HW273241   2.682   6.237   2.967  0.8819 -0.8758  0.2580
23934SOL     OW73242   3.131   5.388  10.953 -0.1545 -0.0829  0.8953
23934SOL    HW173243   3.102   5.298  10.939 -1.9059  0.4758  0.6671
23934SOL    HW273244   3.058   5.429  11.000 -0.2592  1.7092 -0.7078
23935SOL     OW73245   7.963   0.985   8.550  0.0002 -0.3570  0.6049
23935SOL    HW173246   7.927   1.046   8.614  0.3837 -3.1734  3.8373
23935SOL    HW273247   8.053   1.015   8.536  0.6665 -0.8386  3.2662
23936SOL     OW73248   0.398   5.190   2.700 -0.3963 -0.3310 -0.2691
23936SOL    HW173249   0.467   5.134   2.737 -1.1656 -2.1541 -1.4454
23936SOL    HW273250   0.446   5.256   2.649  0.5345  0.1435  1.1759
23937SOL     OW73251   5.729   7.194  11.336  0.4419  0.1030 -0.5366
23937SOL    HW173252   5.655   7.184  11.277 -1.0149  0.6825  1.1229
23937SOL    HW273253   5.804   7.159  11.287 -1.0276 -1.1299 -1.9876
23938SOL     OW73254   2.001   2.567  10.301 -0.0286 -0.1142 -0.0978
23938SOL    HW173255   1.976   2.645  10.252  0.4702 -0.8224 -1.5277
23938SOL    HW273256   2.096   2.561  10.289 -0.1617 -1.3730 -0.6922
23939SOL     OW73257   0.903   0.129   3.793  0.2303  0.4524 -0.2286
23939SOL    HW173258   0.962   0.201   3.770 -2.9286  3.1720 -0.7141
23939SOL    HW273259   0.842   0.125   3.719 -0.9382 -1.3661  0.7727
23940SOL     OW73260   6.835   0.990   3.148 -0.2833  0.8575 -0.4118
23940SOL    HW173261   6.812   1.022   3.235  0.0505 -0.9006  0.3844
23940SOL    HW273262   6.809   1.060   3.088 -0.9064  1.9355  1.0597
23941SOL     OW73263   4.069   7.659   3.748 -0.4636  0.5088 -0.2107
23941SOL    HW173264   3.985   7.613   3.740 -0.3710 -0.1154  1.8638
23941SOL    HW273265   4.134   7.589   3.756  0.0858  0.9984 -0.3282
23942SOL     OW73266   1.880   4.836   5.121  0.3098  0.2677 -0.4153
23942SOL    HW173267   1.966   4.799   5.101 -0.0291  0.0135 -1.4889
23942SOL    HW273268   1.822   4.760   5.128  0.1052  0.4556 -0.0287
23943SOL     OW73269   5.326   1.946   8.903  0.3800 -0.2604 -0.2897
23943SOL    HW173270   5.297   2.026   8.947  2.2271  0.9910 -1.2226
23943SOL    HW273271   5.265   1.879   8.934 -0.9903  1.3999  0.8374
23944SOL     OW73272   0.536   5.098  11.190 -0.3811  0.4719 -0.0591
23944SOL    HW173273   0.503   5.123  11.104  0.0534 -0.8627 -0.6307
23944SOL    HW273274   0.630   5.085  11.177 -0.2627  0.5308  0.6884
23945SOL     OW73275   4.357   5.498   3.298 -0.6469 -0.4752 -0.0117
23945SOL    HW173276   4.281   5.556   3.292  0.0688  0.5841  0.7272
23945SOL    HW273277   4.330   5.428   3.357 -1.1770 -0.3020 -0.0494
23946SOL     OW73278   0.328   0.163   2.020  0.4829  0.1496 -0.6112
23946SOL    HW173279   0.413   0.128   2.044 -0.4042 -0.4686  1.8760
23946SOL    HW273280   0.281   0.172   2.103 -0.8452  3.2767 -1.5520
23947SOL     OW73281   3.278   1.356   7.336 -0.5653 -0.6207  0.1320
23947SOL    HW173282   3.299   1.383   7.426  1.0150 -0.9667 -0.1113
23947SOL    HW273283   3.202   1.299   7.346 -0.6087 -0.4020  1.2278
23948SOL     OW73284   5.765   3.562   0.952  0.4426 -0.2764 -0.4827
23948SOL    HW173285   5.783   3.498   0.883  0.8745  0.6970 -1.2909
23948SOL    HW273286   5.721   3.634   0.907  1.5657  0.7841  0.0755
23949SOL     OW73287   3.413   6.486   6.403  0.2145  0.1995 -0.1578
23949SOL    HW173288   3.461   6.428   6.343  0.1582 -1.9779  1.7393
23949SOL    HW273289   3.451   6.466   6.489 -2.4961  0.0883  1.1020
23950SOL     OW73290   1.205   1.054   2.993 -0.4115  0.0198 -0.0976
23950SOL    HW173291   1.250   1.129   3.032  0.7126  0.0573 -1.3987
23950SOL    HW273292   1.238   0.978   3.042 -0.7332  0.2675  0.5096
23951SOL     OW73293   3.917   1.117  10.455  0.7335  0.2031 -0.0373
23951SOL    HW173294   3.912   1.146  10.364  0.8236 -0.7002 -0.3481
23951SOL    HW273295   3.985   1.171  10.495 -0.4653  1.7852 -0.0338
23952SOL     OW73296   7.815   1.367  11.487 -0.1913 -0.7864 -0.1988
23952SOL    HW173297   7.844   1.373  11.396 -0.9218 -0.2403 -0.4090
23952SOL    HW273298   7.857   1.441  11.530  0.3829 -1.2096 -0.0160
23953SOL     OW73299   2.534   6.640   3.034 -0.1618 -0.0201 -0.0405
23953SOL    HW173300   2.609   6.684   3.073 -0.5965  0.3315  0.4111
23953SOL    HW273301   2.458   6.685   3.071 -0.5925  0.5661 -1.5661
23954SOL     OW73302   2.240   1.152   5.939  0.1850  0.5626 -0.5752
23954SOL    HW173303   2.169   1.210   5.966  0.9989  0.9249  0.9326
23954SOL    HW273304   2.203   1.099   5.868 -1.1132  1.7290 -0.8055
23955SOL     OW73305   3.136   3.512  12.194 -0.3590 -0.1050 -0.1195
23955SOL    HW173306   3.097   3.522  12.107 -0.8492 -0.7357  0.0157
23955SOL    HW273307   3.139   3.417  12.208 -2.5466 -0.0227  1.5233
23956SOL     OW73308   4.170   3.608   5.771 -0.2071 -0.5823 -0.0297
23956SOL    HW173309   4.236   3.581   5.835 -0.4725 -1.4307 -0.1072
23956SOL    HW273310   4.103   3.652   5.823 -0.7055 -1.7781  0.3775
23957SOL     OW73311   6.329   1.171   3.786 -0.2972 -0.0100  0.2648
23957SOL    HW173312   6.268   1.207   3.721  0.0095 -0.0735 -0.0615
23957SOL    HW273313   6.359   1.248   3.835  0.8818  0.2964 -0.8757
23958SOL     OW73314   0.392   0.094   3.529 -0.5349 -0.2965  0.1169
23958SOL    HW173315   0.368   0.021   3.586 -0.2725 -0.8504 -0.4859
23958SOL    HW273316   0.345   0.169   3.567 -0.5353 -0.7000  0.9354
23959SOL     OW73317   5.369   6.680  11.498 -0.2814 -0.5416 -0.4493
23959SOL    HW173318   5.362   6.670  11.593 -0.3949  1.7624 -0.1680
23959SOL    HW273319   5.278   6.684  11.467 -0.4017  2.8695 -0.0555
23960SOL     OW73320   2.945   0.558   1.035 -0.2650 -0.0188 -0.6619
23960SOL    HW173321   2.948   0.475   0.989  1.6097 -0.1495 -0.3897
23960SOL    HW273322   2.950   0.624   0.966 -0.1250 -0.1744 -0.8033
23961SOL     OW73323   5.137   5.169   5.705 -0.7230  0.0107  0.1460
23961SOL    HW173324   5.186   5.187   5.625  2.9080  2.2715  2.5889
23961SOL    HW273325   5.186   5.098   5.748 -1.9995 -0.4850  0.8438
23962SOL     OW73326   3.178   1.121   1.796  0.2780 -0.2122  0.5248
23962SOL    HW173327   3.118   1.089   1.728 -1.0331  0.2654  1.4304
23962SOL    HW273328   3.221   1.042   1.829 -1.4457 -0.8624  1.3405
23963SOL     OW73329   2.076   3.614   8.274 -0.3354 -0.3740  0.5321
23963SOL    HW173330   2.002   3.606   8.333 -0.9786 -1.8273 -0.4147
23963SOL    HW273331   2.049   3.567   8.195  0.8113  0.8129 -0.6111
23964SOL     OW73332   3.367   1.999   4.875 -0.6223 -0.0433  0.0237
23964SOL    HW173333   3.338   2.027   4.962  0.9089 -1.9986  1.2473
23964SOL    HW273334   3.353   1.904   4.874  0.1544 -0.1821 -1.5557
23965SOL     OW73335   0.408   6.162   5.692 -0.3504  0.7882 -0.0297
23965SOL    HW173336   0.403   6.207   5.776  0.8468  1.6040 -0.3668
23965SOL    HW273337   0.395   6.069   5.713 -0.3411  1.0135  1.0029
23966SOL     OW73338   1.185   1.448  11.065 -0.1594  0.6039  0.1666
23966SOL    HW173339   1.267   1.412  11.031 -0.0166  1.1873 -0.1395
23966SOL    HW273340   1.116   1.395  11.025  0.0120  1.1666 -0.9244
23967SOL     OW73341   4.910   5.104   5.348 -0.2766  0.2664 -0.4359
23967SOL    HW173342   4.843   5.168   5.371  0.2473  1.2020 -1.4647
23967SOL    HW273343   4.972   5.151   5.292  0.8671 -0.7644 -0.1012
23968SOL     OW73344   4.432   2.364   8.745 -0.1157 -0.4871  0.3764
23968SOL    HW173345   4.375   2.346   8.820 -0.2149  0.0189  0.4216
23968SOL    HW273346   4.407   2.451   8.715 -0.6529 -1.0108 -0.7692
23969SOL     OW73347   7.448   7.376  11.513  0.2011 -0.2484 -0.3706
23969SOL    HW173348   7.429   7.452  11.568  1.1582 -0.3655  0.1285
23969SOL    HW273349   7.418   7.301  11.565 -0.8761 -0.2287 -0.9217
23970SOL     OW73350   0.263   2.622   0.751 -0.6121  0.2772  0.4234
23970SOL    HW173351   0.206   2.659   0.818 -2.1144 -0.0916 -0.5820
23970SOL    HW273352   0.347   2.608   0.795 -1.4362  0.3774  2.1088
23971SOL     OW73353   6.430   0.892  10.770 -0.4483 -0.1520 -0.4444
23971SOL    HW173354   6.384   0.827  10.716  2.3296 -2.2581 -0.5045
23971SOL    HW273355   6.439   0.850  10.856  1.8365 -0.1217 -0.6181
23972SOL     OW73356   5.182   0.623   8.431  0.5718  0.0783 -0.3806
23972SOL    HW173357   5.240   0.683   8.479 -0.2079  0.0434  0.6285
23972SOL    HW273358   5.094   0.644   8.461  0.1117 -0.3555 -1.3701
23973SOL     OW73359   6.725   3.127   8.680  0.3998  0.6808 -0.2152
23973SOL    HW173360   6.645   3.171   8.707 -0.0587  0.6285 -1.4256
23973SOL    HW273361   6.759   3.181   8.609  0.0811 -0.6350 -1.4113
23974SOL     OW73362   1.556   2.389   7.218  0.4694  0.0070 -0.1251
23974SOL    HW173363   1.631   2.413   7.271 -0.0079 -0.8636  0.9904
23974SOL    HW273364   1.504   2.469   7.213 -0.0997 -0.1671  1.8341
23975SOL     OW73365   3.514   7.823  11.984  0.7780 -0.1845 -0.8225
23975SOL    HW173366   3.597   7.840  12.028  0.6687 -0.6801 -0.4170
23975SOL    HW273367   3.510   7.728  11.977 -0.4605 -0.2789  0.5717
23976SOL     OW73368   6.953   7.071   8.178  0.2131  0.0867 -0.4096
23976SOL    HW173369   7.044   7.075   8.207  0.2671  2.4032 -0.7215
23976SOL    HW273370   6.946   7.137   8.109 -1.1713 -1.6752 -2.0747
23977SOL     OW73371   2.685   3.086   6.524 -0.0829 -0.3631 -0.2815
23977SOL    HW173372   2.628   3.128   6.460  0.3059  0.8224  0.1228
23977SOL    HW273373   2.630   3.075   6.602  0.0581  0.2144 -0.0966
23978SOL     OW73374   7.040   3.312   1.012  0.1765 -0.3658  0.0339
23978SOL    HW173375   7.028   3.401   0.977  2.3538  1.6464  3.8065
23978SOL    HW273376   6.953   3.273   1.005 -0.6093  1.5065 -2.8485
23979SOL     OW73377   6.899   4.666   9.625 -0.2908  0.2979 -0.0617
23979SOL    HW173378   6.993   4.658   9.639 -0.1094 -1.0653 -1.6725
23979SOL    HW273379   6.859   4.627   9.702  0.3644  2.8550  1.6951
23980SOL     OW73380   3.108   0.862  11.321  0.6437 -0.4246 -0.2770
23980SOL    HW173381   3.203   0.865  11.318  0.6244  1.1167 -0.4273
23980SOL    HW273382   3.084   0.929  11.385 -0.3426 -0.8691 -0.1590
23981SOL     OW73383   1.103   0.617   4.220 -0.7200  0.2253 -0.1791
23981SOL    HW173384   1.180   0.657   4.261 -0.6049 -1.2345  1.1368
23981SOL    HW273385   1.078   0.678   4.151  1.1829  1.0895 -0.1684
23982SOL     OW73386   0.920   6.470   3.651 -0.3271 -0.5724  0.8662
23982SOL    HW173387   1.012   6.486   3.669 -0.4290  0.9176  0.2365
23982SOL    HW273388   0.876   6.494   3.733 -0.3024  0.6553  0.5422
23983SOL     OW73389   6.106   0.494   5.160  0.3720  0.0598 -0.3310
23983SOL    HW173390   6.101   0.558   5.231 -1.2605 -0.1226 -0.2471
23983SOL    HW273391   6.038   0.522   5.098  0.1506 -1.1385 -0.6598
23984SOL     OW73392   0.900   2.339   1.883  0.0948 -0.5060 -0.0553
23984SOL    HW173393   0.812   2.306   1.866  0.2740 -0.8497 -0.3377
23984SOL    HW273394   0.891   2.434   1.886 -0.3856 -0.5672  0.4968
23985SOL     OW73395   5.391   5.746  10.043  0.0208 -0.1904 -0.4728
23985SOL    HW173396   5.318   5.699  10.002  1.1115 -0.7876 -1.8182
23985SOL    HW273397   5.402   5.824   9.990 -0.6539  0.7356  0.7054
23986SOL     OW73398   2.587   7.549   8.849  0.0946 -0.4959  0.4677
23986SOL    HW173399   2.524   7.492   8.805  1.0141 -2.1097  1.1188
23986SOL    HW273400   2.535   7.602   8.908 -0.7596 -1.0474  0.2290
23987SOL     OW73401   1.143   2.628   1.622 -0.0769 -0.1175 -0.3367
23987SOL    HW173402   1.074   2.616   1.557  0.4453 -2.3588 -0.5719
23987SOL    HW273403   1.186   2.710   1.596 -0.1480 -0.7204 -2.5912
23988SOL     OW73404   3.655   0.289   1.536  0.1310  0.0291 -0.1293
23988SOL    HW173405   3.581   0.261   1.589  1.9841 -3.4401  0.9509
23988SOL    HW273406   3.633   0.262   1.447 -0.4551  0.2924 -0.0698
23989SOL     OW73407   5.029   6.360  12.276 -0.2617 -0.2763  0.1718
23989SOL    HW173408   4.984   6.343  12.193  0.0101 -2.7749  0.4728
23989SOL    HW273409   4.961   6.351  12.342  0.1220 -1.4739  0.4276
23990SOL     OW73410   2.264   4.586   9.116  0.2986  0.9639 -0.1404
23990SOL    HW173411   2.272   4.493   9.135  2.0694  0.9272 -0.8918
23990SOL    HW273412   2.173   4.608   9.139  0.2210 -0.6413  1.2444
23991SOL     OW73413   2.751   7.887   9.420 -0.1177  0.0380 -0.0945
23991SOL    HW173414   2.692   7.962   9.422  0.6329  0.6390 -0.2096
23991SOL    HW273415   2.839   7.924   9.427  0.2301 -0.8852  0.7860
23992SOL     OW73416   2.837   7.438  12.103 -0.7602  0.4127  0.1994
23992SOL    HW173417   2.865   7.348  12.119 -1.7474  0.0788  0.1260
23992SOL    HW273418   2.888   7.490  12.165 -0.0443 -0.1688  0.1182
23993SOL     OW73419   6.058   7.700   1.959 -0.6390  0.0862 -0.4788
23993SOL    HW173420   5.970   7.697   1.996 -0.4235  0.1462  0.0411
23993SOL    HW273421   6.111   7.744   2.025 -0.2812  0.3353 -0.9258
23994SOL     OW73422   1.146   1.970  12.304  0.4893 -0.1587  0.0654
23994SOL    HW173423   1.096   2.047  12.329 -0.4040  0.5130 -3.4093
23994SOL    HW273424   1.233   2.003  12.284  0.9450 -0.5564  1.2826
23995SOL     OW73425   1.435   1.351   3.850 -0.2441 -0.1897 -0.1261
23995SOL    HW173426   1.410   1.294   3.778  0.1491  2.3481 -2.4487
23995SOL    HW273427   1.512   1.398   3.819 -1.3326  2.5964  0.9867
23996SOL     OW73428   7.804   5.282   2.918  0.3154  0.2865 -0.0803
23996SOL    HW173429   7.710   5.292   2.901  0.0382  0.2444  1.3606
23996SOL    HW273430   7.837   5.233   2.842 -0.8820  0.0294 -0.4494
23997SOL     OW73431   7.505   6.816   4.579 -0.4365 -0.0701  0.0608
23997SOL    HW173432   7.469   6.838   4.493 -1.8613  2.6053  1.2285
23997SOL    HW273433   7.429   6.811   4.637  0.6744  1.1434  1.7153
23998SOL     OW73434   1.290   3.208   4.631 -0.2782  0.7623 -0.5595
23998SOL    HW173435   1.289   3.195   4.726 -0.7076 -0.4193 -0.7019
23998SOL    HW273436   1.358   3.273   4.616  1.1407 -0.4374  0.4054
23999SOL     OW73437   0.519   6.586   7.171 -0.1673 -0.6309  0.3049
23999SOL    HW173438   0.489   6.663   7.219 -0.3360  0.1537 -1.0076
23999SOL    HW273439   0.439   6.549   7.133  0.1376 -0.2970 -0.6872
24000SOL     OW73440   1.953   2.029  11.014 -0.1373 -0.1359  0.1686
24000SOL    HW173441   2.024   2.045  10.952 -0.7904  0.8911 -0.3273
24000SOL    HW273442   1.967   1.938  11.043  1.3461  0.0301  0.0602
24001SOL     OW73443   7.530   5.193  11.159 -0.5438 -0.3274 -0.0675
24001SOL    HW173444   7.463   5.245  11.203  0.0449  0.2327  0.1772
24001SOL    HW273445   7.481   5.135  11.100 -1.1772  0.9758 -0.8560
24002SOL     OW73446   4.762   5.875   9.570  0.1926  0.5868 -0.0826
24002SOL    HW173447   4.849   5.894   9.535 -0.3648 -1.2949 -2.8026
24002SOL    HW273448   4.703   5.891   9.496 -1.4228 -0.9747  0.8101
24003SOL     OW73449   4.094   1.172   8.884  0.1205  0.1205  0.0425
24003SOL    HW173450   4.094   1.265   8.863 -1.5617  0.2257  0.3488
24003SOL    HW273451   4.146   1.165   8.964  0.4438  0.7705 -0.1136
24004SOL     OW73452   3.140   4.517  12.351 -0.2095  0.2229 -0.1335
24004SOL    HW173453   3.154   4.460  12.274 -0.2785 -0.1890  0.1554
24004SOL    HW273454   3.127   4.604  12.314 -1.3225 -0.1488 -0.6716
24005SOL     OW73455   3.731   4.115   1.621 -0.3124  0.1315  0.7791
24005SOL    HW173456   3.738   4.209   1.638  1.7553 -0.0460  1.1518
24005SOL    HW273457   3.798   4.098   1.554  1.0736 -1.4428  2.4688
24006SOL     OW73458   1.155   5.634   2.950 -0.1765  0.3081  0.2295
24006SOL    HW173459   1.201   5.660   2.870  0.8203 -1.0332  0.3286
24006SOL    HW273460   1.162   5.710   3.008  1.8180  0.2255  0.1746
24007SOL     OW73461   6.983   4.074   0.620  0.8496 -0.1830  0.0946
24007SOL    HW173462   6.908   4.017   0.636  0.1918  0.2284 -1.3705
24007SOL    HW273463   7.048   4.017   0.578  0.7262 -0.1839 -0.0993
24008SOL     OW73464   5.200   7.414  10.970  0.4349 -0.3146 -0.0835
24008SOL    HW173465   5.231   7.375  11.052  0.7139  0.6214  0.2605
24008SOL    HW273466   5.228   7.505  10.974  0.0991 -0.1557 -1.0456
24009SOL     OW73467   1.945   5.789   5.650  0.2163 -0.1824 -0.1757
24009SOL    HW173468   1.926   5.849   5.723  0.6588 -1.1232  0.7449
24009SOL    HW273469   2.020   5.738   5.681 -0.6293 -1.7350 -0.6064
24010SOL     OW73470   5.744   1.612  11.021 -0.4954 -0.2516  0.8550
24010SOL    HW173471   5.677   1.584  11.084 -0.8768 -0.8023  0.2151
24010SOL    HW273472   5.745   1.543  10.954 -1.2283  1.0882 -0.5952
24011SOL     OW73473   3.286   6.370   7.592  0.0644 -0.2027 -0.3454
24011SOL    HW173474   3.366   6.369   7.539  2.0203 -1.4111  2.3659
24011SOL    HW273475   3.278   6.460   7.623  1.3843 -0.3958  0.6496
24012SOL     OW73476   5.705   1.940   1.158  0.3621  0.7476 -0.3722
24012SOL    HW173477   5.720   2.035   1.153 -0.5211  0.8278 -3.4815
24012SOL    HW273478   5.790   1.902   1.136  0.5544  0.8083  0.2434
24013SOL     OW73479   3.961   6.067   8.273 -0.5571 -0.3062 -0.2830
24013SOL    HW173480   3.916   6.150   8.255 -2.3825 -1.1424  0.1951
24013SOL    HW273481   3.962   6.061   8.369 -1.6784 -1.4287 -0.3096
24014SOL     OW73482   1.039   6.123  12.018 -0.3699 -0.2233 -0.3227
24014SOL    HW173483   0.960   6.070  12.027 -2.7384  2.7375 -1.7350
24014SOL    HW273484   1.017   6.188  11.951  3.1502  1.0335 -0.4644
24015SOL     OW73485   4.975   2.250   6.919 -0.3373 -0.0005  0.1012
24015SOL    HW173486   4.986   2.341   6.947 -0.2504 -0.3328  1.1951
24015SOL    HW273487   4.896   2.221   6.964 -0.5690 -0.3681 -0.5280
24016SOL     OW73488   5.757   7.450  11.864 -0.0047 -0.1682  0.0136
24016SOL    HW173489   5.697   7.520  11.841  1.3516  0.5670 -1.4701
24016SOL    HW273490   5.759   7.451  11.960 -1.2569  0.7235  0.0491
24017SOL     OW73491   1.004   2.587   2.098  0.2821 -0.1450 -0.3094
24017SOL    HW173492   0.964   2.554   2.017  0.7715 -0.9381 -0.2422
24017SOL    HW273493   1.057   2.662   2.069 -0.4053  0.2494 -0.5559
24018SOL     OW73494   5.860   6.271   8.488  0.4096  0.1150  0.4724
24018SOL    HW173495   5.819   6.299   8.406 -0.4748  0.7979  1.1296
24018SOL    HW273496   5.893   6.183   8.470  1.6989  0.8657 -1.1196
24019SOL     OW73497   3.096   6.975   5.204 -0.0022  0.7218 -0.0075
24019SOL    HW173498   3.108   7.053   5.151 -1.9727  0.8803 -0.2903
24019SOL    HW273499   3.066   7.007   5.288 -2.4582  0.2762 -0.6367
24020SOL     OW73500   5.878   0.991  11.862 -0.1772 -0.0217 -0.4058
24020SOL    HW173501   5.896   0.999  11.955 -2.8801  2.9502  0.0576
24020SOL    HW273502   5.861   0.898  11.848  2.7634 -0.9520  1.4256
24021SOL     OW73503   6.773   4.639   8.469 -0.5288 -0.1199 -0.1453
24021SOL    HW173504   6.749   4.605   8.383 -0.9585 -0.4833  0.1120
24021SOL    HW273505   6.868   4.653   8.463 -0.7651  1.2804 -1.1571
24022SOL     OW73506   1.343   4.294   3.636 -0.1156  0.2171  0.0750
24022SOL    HW173507   1.384   4.217   3.597  0.3076 -0.4129  1.7000
24022SOL    HW273508   1.327   4.353   3.562 -0.6600 -1.5107 -1.2308
24023SOL     OW73509   0.558   2.254   7.068  0.0660  0.1148 -0.3916
24023SOL    HW173510   0.623   2.266   7.138  1.1955  0.6530 -1.5040
24023SOL    HW273511   0.524   2.342   7.052 -0.5457 -0.0807 -0.2058
24024SOL     OW73512   5.237   4.641  12.210  0.5728 -0.6125  0.0493
24024SOL    HW173513   5.256   4.609  12.122 -0.5079  1.0541 -0.8274
24024SOL    HW273514   5.179   4.716  12.197  1.5222  0.5674  2.0912
24025SOL     OW73515   3.419   7.573   9.379 -0.1198 -0.3592  0.3042
24025SOL    HW173516   3.434   7.488   9.339 -0.0840  0.1153 -0.7339
24025SOL    HW273517   3.331   7.598   9.350 -0.5835 -0.5243  1.5109
24026SOL     OW73518   1.614   7.397   7.262 -0.0570  0.1738  0.1126
24026SOL    HW173519   1.596   7.303   7.258  2.0640 -0.3953  1.7723
24026SOL    HW273520   1.573   7.425   7.344 -0.7889  0.7453 -0.4393
24027SOL     OW73521   1.856   4.766   2.683  0.2707 -0.0666  0.3127
24027SOL    HW173522   1.816   4.700   2.626 -0.5686  1.2215 -0.6273
24027SOL    HW273523   1.941   4.784   2.642  0.8378 -1.0901  0.9984
24028SOL     OW73524   2.817   6.379   7.809  0.0862 -0.5626 -0.0048
24028SOL    HW173525   2.879   6.424   7.751  0.6132  0.2878  1.1658
24028SOL    HW273526   2.862   6.299   7.835 -0.1212 -0.9088 -0.6981
24029SOL     OW73527   4.401   7.645   0.362  0.1388 -0.4407  0.1888
24029SOL    HW173528   4.428   7.730   0.398 -0.4287 -1.2645  2.7626
24029SOL    HW273529   4.306   7.651   0.354  0.1613 -0.6279 -0.2934
24030SOL     OW73530   5.768   3.794   4.276 -0.6698 -0.3994 -0.0039
24030SOL    HW173531   5.748   3.772   4.185  0.7754 -1.3240 -0.1301
24030SOL    HW273532   5.844   3.852   4.271 -0.5490 -0.4926  0.6244
24031SOL     OW73533   2.772   7.862   3.496 -0.4080  0.0325  0.7963
24031SOL    HW173534   2.776   7.791   3.559 -1.9157  0.0068  0.8942
24031SOL    HW273535   2.691   7.909   3.517 -0.7638  0.2378 -0.8816
24032SOL     OW73536   7.351   2.153   1.711  0.1401 -0.0851  0.8772
24032SOL    HW173537   7.411   2.157   1.637 -0.6050  0.2613  0.2809
24032SOL    HW273538   7.264   2.170   1.673 -0.3114 -0.3823  1.7490
24033SOL     OW73539   7.564   7.877   2.754 -0.1507 -0.2858  0.2468
24033SOL    HW173540   7.576   7.971   2.766 -0.3826 -0.1707 -0.3524
24033SOL    HW273541   7.469   7.865   2.753 -0.1802 -0.2506 -1.4707
24034SOL     OW73542   4.648   5.067   7.886 -0.5937  0.6073  0.1514
24034SOL    HW173543   4.687   5.000   7.831 -1.3097 -0.6955  1.1669
24034SOL    HW273544   4.649   5.030   7.974 -2.8079  1.0593  0.4394
24035SOL     OW73545   5.709   5.308  11.801  0.2628  0.2854  0.3504
24035SOL    HW173546   5.777   5.302  11.734 -0.2447  0.1442 -0.1694
24035SOL    HW273547   5.633   5.266  11.761  0.4251 -1.3707  1.6728
24036SOL     OW73548   6.769   4.565   0.240 -0.0946 -0.7828  0.2416
24036SOL    HW173549   6.860   4.547   0.217 -0.6032 -1.6678 -1.2142
24036SOL    HW273550   6.775   4.623   0.316  1.7090  0.5618 -0.8215
24037SOL     OW73551   2.964   7.597   5.636  0.4146  0.1586 -0.0619
24037SOL    HW173552   2.919   7.672   5.673 -0.1603  0.1553 -0.7217
24037SOL    HW273553   2.905   7.566   5.567  1.6597  0.4683 -1.3100
24038SOL     OW73554   6.056   4.600   9.827  0.2765  0.4313  0.2322
24038SOL    HW173555   6.104   4.535   9.879 -0.6357 -0.6735 -0.2670
24038SOL    HW273556   6.089   4.684   9.858  0.1480 -0.1987  2.2316
24039SOL     OW73557   1.251   0.177   8.061 -0.2720  0.0261  0.0365
24039SOL    HW173558   1.328   0.179   8.004 -0.3724  0.3100 -0.0901
24039SOL    HW273559   1.196   0.248   8.029  0.5180  1.4689  1.6754
24040SOL     OW73560   0.374   1.875   1.182 -0.4201  0.0273  0.2929
24040SOL    HW173561   0.462   1.910   1.200  0.1722 -1.9599  1.6933
24040SOL    HW273562   0.315   1.944   1.210  0.6975  1.0132  0.3078
24041SOL     OW73563   6.581   2.687   0.775 -0.2390  0.2977  0.2951
24041SOL    HW173564   6.503   2.633   0.776 -1.2506  1.5868 -1.6268
24041SOL    HW273565   6.549   2.776   0.791  0.9552  0.7363  0.3696
24042SOL     OW73566   4.017   0.478   7.099 -0.2793  0.8163  0.0196
24042SOL    HW173567   3.926   0.448   7.108  0.5254 -2.3162 -0.8931
24042SOL    HW273568   4.048   0.434   7.020  2.4467  0.6126  1.1144
24043SOL     OW73569   3.829   0.241   0.934  0.3476  0.1686  0.6313
24043SOL    HW173570   3.901   0.203   0.984  1.6540  2.2876  0.4731
24043SOL    HW273571   3.842   0.335   0.940 -2.5999  0.6731  0.8271
24044SOL     OW73572   2.352   2.084  11.123 -0.6808  0.8489  0.7086
24044SOL    HW173573   2.381   1.996  11.097 -0.4177  0.6235  1.7122
24044SOL    HW273574   2.267   2.095  11.080 -0.5437  0.2522  0.2722
24045SOL     OW73575   3.395   1.267   0.820  0.3527 -0.3182  0.2667
24045SOL    HW173576   3.311   1.238   0.857  0.3354 -0.7763 -0.1210
24045SOL    HW273577   3.379   1.356   0.790 -0.4851 -0.9768 -1.3332
24046SOL     OW73578   0.104   1.205   7.763  0.1553  0.1426  0.1410
24046SOL    HW173579   0.067   1.272   7.821 -0.1378  1.4640 -1.4864
24046SOL    HW273580   0.164   1.253   7.707  0.2857 -1.0568 -0.7671
24047SOL     OW73581   3.414   1.847  12.150 -0.1831 -0.1182  0.3003
24047SOL    HW173582   3.354   1.772  12.144 -0.4850  0.1036  0.4975
24047SOL    HW273583   3.488   1.824  12.093 -0.3644 -0.4810  0.2106
24048SOL     OW73584   2.270   3.530   7.657  0.4080  0.0705  0.2409
24048SOL    HW173585   2.309   3.443   7.660  0.7742  0.2311  0.1749
24048SOL    HW273586   2.330   3.585   7.708 -0.7379 -0.0700  1.8015
24049SOL     OW73587   3.354   0.333   5.380  0.6423  0.1007  0.4346
24049SOL    HW173588   3.434   0.280   5.385  0.8282  0.1801 -1.1828
24049SOL    HW273589   3.288   0.280   5.425  1.5343 -0.0584  1.6257
24050SOL     OW73590   7.002   2.114   2.914 -0.8047  0.3296 -0.3103
24050SOL    HW173591   7.059   2.113   2.991 -1.0106 -1.4609 -0.1572
24050SOL    HW273592   7.026   2.036   2.865 -1.1502  1.0914 -1.7461
24051SOL     OW73593   6.773   0.332  10.896  0.4196  0.5485  0.0107
24051SOL    HW173594   6.849   0.324  10.954  0.1792 -0.0255  0.2576
24051SOL    HW273595   6.721   0.254  10.914  1.3751 -0.8005 -2.4873
24052SOL     OW73596   3.729   6.186  10.832 -0.0433 -0.0459 -0.1749
24052SOL    HW173597   3.735   6.118  10.900  0.1019 -1.2712 -1.3708
24052SOL    HW273598   3.642   6.223  10.844 -0.2542 -0.6601  0.3044
24053SOL     OW73599   5.633   0.932  11.040  0.8431  0.2296  0.5403
24053SOL    HW173600   5.684   0.942  10.959 -1.6616  0.3919 -1.1268
24053SOL    HW273601   5.685   0.978  11.106  2.6465  0.7271 -1.1186
24054SOL     OW73602   4.661   3.312   5.572 -0.1908  0.9373  0.1654
24054SOL    HW173603   4.655   3.404   5.599 -1.2282  0.9676 -0.1150
24054SOL    HW273604   4.570   3.283   5.566  0.0470  0.4264 -1.5098
24055SOL     OW73605   4.461   4.720   0.729 -0.2961 -0.3713  0.0936
24055SOL    HW173606   4.479   4.627   0.718  3.4453  0.2657 -0.2812
24055SOL    HW273607   4.439   4.751   0.642 -1.8878 -0.8715  0.2726
24056SOL     OW73608   7.299   7.625   1.165 -0.3134  0.4269  0.3288
24056SOL    HW173609   7.296   7.546   1.110 -1.3714  2.0043 -2.0174
24056SOL    HW273610   7.389   7.656   1.158 -0.3098  0.3240 -0.0558
24057SOL     OW73611   4.330   2.926   7.832 -0.3085  0.3074  0.2491
24057SOL    HW173612   4.384   2.943   7.754  0.0365 -1.3389  0.0949
24057SOL    HW273613   4.249   2.889   7.798 -1.1797  1.8610  0.5504
24058SOL     OW73614   7.892   5.920   5.629  0.1513  0.8250 -0.3694
24058SOL    HW173615   7.860   5.918   5.539  1.2661  1.2944 -0.7930
24058SOL    HW273616   7.816   5.948   5.680 -1.0401 -1.2611 -0.8820
24059SOL     OW73617   0.904   4.823  10.799 -0.2396 -0.4669 -0.0005
24059SOL    HW173618   0.986   4.864  10.770 -1.1042  1.0496 -0.3644
24059SOL    HW273619   0.911   4.819  10.894  0.2633 -0.3909 -0.0321
24060SOL     OW73620   3.945   0.391  10.356 -0.1093  0.0084 -0.2062
24060SOL    HW173621   4.020   0.442  10.325  0.2143  0.0471  0.6194
24060SOL    HW273622   3.974   0.300  10.349  0.4451  0.0527  1.1222
24061SOL     OW73623   6.735   1.591   2.540  0.2046  0.0541 -0.0204
24061SOL    HW173624   6.801   1.660   2.551 -1.9983  2.0607  1.5775
24061SOL    HW273625   6.765   1.520   2.597  1.7315  0.2656 -0.5039
24062SOL     OW73626   6.043   2.007  10.244 -0.0154 -0.0935 -0.4340
24062SOL    HW173627   6.092   1.969  10.171 -1.3656 -0.2335 -1.2982
24062SOL    HW273628   5.987   1.936  10.275  0.8149 -0.1673  1.0520
24063SOL     OW73629   7.415   2.062   8.449  0.3456  0.4152 -0.4642
24063SOL    HW173630   7.401   1.968   8.442 -1.5874  0.5987  0.2733
24063SOL    HW273631   7.373   2.086   8.531 -0.2861  2.0870 -1.2264
24064SOL     OW73632   1.080   4.027  10.758  0.6176  0.2341 -0.1739
24064SOL    HW173633   1.115   3.959  10.701  1.3126  0.8667 -0.5233
24064SOL    HW273634   1.073   4.104  10.702 -0.7769  0.2892  0.0537
24065SOL     OW73635   0.157   2.773  10.788  0.4516  0.1123 -0.1638
24065SOL    HW173636   0.237   2.824  10.773  2.0688 -2.3137 -0.2729
24065SOL    HW273637   0.127   2.748  10.700 -0.9285  1.6157 -0.1756
24066SOL     OW73638   3.847   4.986   3.937 -0.1274 -0.1068  0.2286
24066SOL    HW173639   3.905   4.965   3.864 -0.2922 -2.5452  0.7035
24066SOL    HW273640   3.762   5.000   3.897 -0.3996 -2.2584 -0.0402
24067SOL     OW73641   3.421   2.509   2.277  0.4418  0.3099  0.2296
24067SOL    HW173642   3.512   2.479   2.266  0.1196 -0.8924  0.7483
24067SOL    HW273643   3.371   2.457   2.215  0.1019  1.0589 -0.1451
24068SOL     OW73644   6.359   1.608   3.664  0.2400 -0.6407 -0.8929
24068SOL    HW173645   6.413   1.685   3.683 -2.1015  1.8231 -3.2326
24068SOL    HW273646   6.383   1.582   3.576 -0.1677 -1.5402 -0.7465
24069SOL     OW73647   1.749   1.498   9.440 -0.1506  0.2528  0.5816
24069SOL    HW173648   1.768   1.473   9.531 -2.7531 -1.4431  0.7252
24069SOL    HW273649   1.682   1.438   9.411  0.7069  0.6503 -2.6012
24070SOL     OW73650   3.641   0.892   8.428  0.6014 -0.1717 -0.0307
24070SOL    HW173651   3.584   0.839   8.372  0.6789  1.8495 -2.2185
24070SOL    HW273652   3.584   0.962   8.460  1.7777  2.0935 -2.5528
24071SOL     OW73653   4.910   1.277   5.168 -0.2781 -0.0871 -0.3827
24071SOL    HW173654   5.000   1.250   5.149 -0.2152  0.0000 -0.2190
24071SOL    HW273655   4.894   1.351   5.109  1.1694  2.5448  2.2519
24072SOL     OW73656   0.754   5.447   8.851  0.3975 -0.2768  0.9911
24072SOL    HW173657   0.811   5.374   8.828  1.1131  0.1649  1.3240
24072SOL    HW273658   0.705   5.416   8.927 -0.2300 -0.8616  0.3675
24073SOL     OW73659   6.640   4.956   8.085  0.3989 -0.1980  0.2828
24073SOL    HW173660   6.592   5.029   8.124  1.7295 -0.2599  2.1675
24073SOL    HW273661   6.572   4.900   8.046 -0.7241  1.4451 -0.2125
24074SOL     OW73662   4.605   1.064   6.868 -0.8923 -0.2534 -0.2497
24074SOL    HW173663   4.637   1.094   6.953  0.5299  0.4276 -0.9867
24074SOL    HW273664   4.677   1.011   6.834 -2.5174 -2.8490  0.1074
24075SOL     OW73665   3.387   1.335  10.899 -0.2021  0.2348  0.3459
24075SOL    HW173666   3.413   1.395  10.969  1.4983  0.6617 -0.5960
24075SOL    HW273667   3.454   1.267  10.900 -0.8020 -0.3704 -0.1329
24076SOL     OW73668   4.022   1.790   5.756 -0.1281 -0.1781 -0.5884
24076SOL    HW173669   4.112   1.758   5.759 -0.1893 -0.2845  0.7349
24076SOL    HW273670   4.029   1.878   5.721  0.5201 -0.1202 -0.3327
24077SOL     OW73671   3.327   2.227   0.724  0.3916  0.3522 -0.3783
24077SOL    HW173672   3.288   2.217   0.811  0.1602 -1.5709 -0.6605
24077SOL    HW273673   3.419   2.248   0.741  0.6860 -1.4029  0.3754
24078SOL     OW73674   7.614   5.061   4.712 -0.4619  0.3200  0.0537
24078SOL    HW173675   7.578   4.993   4.769 -3.4587  2.1583  0.5474
24078SOL    HW273676   7.636   5.014   4.631  1.0846 -1.8076  1.5711
24079SOL     OW73677   3.062   0.944   4.865  0.7740 -0.7230  0.4122
24079SOL    HW173678   2.972   0.974   4.879  0.0882 -2.3723 -0.1808
24079SOL    HW273679   3.115   1.024   4.871 -0.8279  0.4453 -0.1834
24080SOL     OW73680   0.615   4.563   7.904  0.3636  0.1883 -0.1633
24080SOL    HW173681   0.591   4.539   7.993  0.0182 -1.1232 -0.5737
24080SOL    HW273682   0.611   4.480   7.855  0.2388  0.9229 -1.4592
24081SOL     OW73683   7.003   3.594  11.787 -0.7361 -0.5668  0.7415
24081SOL    HW173684   7.079   3.562  11.836 -0.2279 -3.3880 -1.6391
24081SOL    HW273685   6.934   3.531  11.807 -0.8747 -1.0563 -1.1146
24082SOL     OW73686   3.374   1.553  10.242 -0.0248 -0.2969  0.4868
24082SOL    HW173687   3.296   1.522  10.289 -0.1382  0.4276  0.7785
24082SOL    HW273688   3.437   1.575  10.310 -0.0365  0.3571  0.2935
24083SOL     OW73689   0.915   7.644   6.545  0.6813  0.6669  0.0645
24083SOL    HW173690   0.969   7.628   6.622 -0.0998  3.4401  1.3039
24083SOL    HW273691   0.972   7.694   6.486  1.5275 -2.0632 -1.6200
24084SOL     OW73692   6.228   7.100   4.401 -0.1762  0.3751 -0.0638
24084SOL    HW173693   6.234   7.143   4.487  0.6175  0.2030 -0.0299
24084SOL    HW273694   6.239   7.007   4.420 -1.5170  0.1797 -0.1829
24085SOL     OW73695   3.440   6.240   8.785 -0.1522 -0.4842 -0.4904
24085SOL    HW173696   3.455   6.160   8.835 -0.5069  0.1873  0.7356
24085SOL    HW273697   3.349   6.234   8.758 -0.1151 -0.5936 -0.5941
24086SOL     OW73698   0.631   5.697  11.843 -0.6000  0.0003 -0.0978
24086SOL    HW173699   0.677   5.781  11.842  0.4187 -0.5278  0.1281
24086SOL    HW273700   0.623   5.674  11.750  1.4583 -0.8377 -0.1323
24087SOL     OW73701   4.727   7.556   2.572  0.1327  0.1230  0.4391
24087SOL    HW173702   4.633   7.545   2.565  0.1773 -0.2986  0.5166
24087SOL    HW273703   4.745   7.557   2.666  0.1074  1.0566  0.4461
24088SOL     OW73704   0.799   5.165  10.203 -1.0388 -0.3191  0.1504
24088SOL    HW173705   0.824   5.082  10.162 -0.6819 -0.2168  0.1595
24088SOL    HW273706   0.882   5.203  10.234 -1.2998 -0.3841  0.9495
24089SOL     OW73707   1.682   1.336  10.525 -0.1247 -0.0442  0.0525
24089SOL    HW173708   1.698   1.248  10.491 -0.2564 -0.1251  0.2023
24089SOL    HW273709   1.749   1.349  10.592  0.1715  0.1376 -0.2705
24090SOL     OW73710   2.614   3.435  11.733  0.0858 -0.7606  0.4695
24090SOL    HW173711   2.702   3.424  11.768  0.0011  1.6312  1.6044
24090SOL    HW273712   2.593   3.527  11.748 -1.8434 -0.7645 -1.6048
24091SOL     OW73713   7.731   1.646   9.481 -0.1745  0.0100  0.0489
24091SOL    HW173714   7.726   1.605   9.394  1.0361  1.5074 -0.7886
24091SOL    HW273715   7.815   1.618   9.517 -0.3459 -0.0243  0.4266
24092SOL     OW73716   1.578   0.421  10.958  0.2832  0.5236  0.0585
24092SOL    HW173717   1.497   0.472  10.955 -1.5788 -2.2192 -0.0021
24092SOL    HW273718   1.627   0.449  10.881 -0.5896  2.2527  0.0912
24093SOL     OW73719   2.749   5.728   0.051  0.5376 -0.3878  0.5517
24093SOL    HW173720   2.748   5.639   0.016  2.0598 -0.3872  0.4765
24093SOL    HW273721   2.749   5.784  -0.027  3.2887 -0.3838  0.4644
24094SOL     OW73722   7.850   6.044   3.350 -0.7822  0.1778 -0.5666
24094SOL    HW173723   7.916   5.994   3.302 -1.4198 -0.9385 -0.3243
24094SOL    HW273724   7.802   6.091   3.282 -0.0012  0.7020 -0.7736
24095SOL     OW73725   5.549   0.770   1.142  0.2078 -0.3469  0.4132
24095SOL    HW173726   5.502   0.689   1.160 -1.2640  0.4230  0.1290
24095SOL    HW273727   5.486   0.839   1.160  0.8039  0.6863 -1.2347
24096SOL     OW73728   7.021   2.864  11.351 -0.0744 -0.1484  0.3213
24096SOL    HW173729   6.957   2.916  11.302  0.7248  0.9496  0.4028
24096SOL    HW273730   7.103   2.875  11.302  0.5595  0.3348  1.4404
24097SOL     OW73731   4.051   7.146   4.386 -0.0925 -0.5124  0.1465
24097SOL    HW173732   4.055   7.058   4.424  0.3218 -1.1029 -1.1841
24097SOL    HW273733   3.982   7.191   4.434  1.9723 -0.3546  3.2830
24098SOL     OW73734   7.898   0.831   5.844 -0.1219 -0.5859  0.2205
24098SOL    HW173735   7.829   0.811   5.907 -0.6704 -0.0643 -0.2040
24098SOL    HW273736   7.868   0.910   5.799  1.1718  0.1627  0.6299
24099SOL     OW73737   7.346   2.862   2.883 -0.4297 -0.6743 -0.1263
24099SOL    HW173738   7.291   2.868   2.961  0.8996  1.1194  0.7598
24099SOL    HW273739   7.357   2.953   2.855  1.5262 -1.0096 -0.6114
24100SOL     OW73740   7.947   2.740  11.885 -0.1282  0.5816  0.1724
24100SOL    HW173741   8.030   2.702  11.915  0.9927  0.5986 -2.5605
24100SOL    HW273742   7.973   2.815  11.832 -1.8027  0.0742 -1.4896
24101SOL     OW73743   4.839   7.581   9.897  0.1177 -0.0389  0.6094
24101SOL    HW173744   4.825   7.623   9.982 -0.5584 -1.0610  1.0387
24101SOL    HW273745   4.917   7.622   9.861 -0.9823  2.1728  0.5961
24102SOL     OW73746   1.608   6.354   5.865  0.1774 -0.5116  0.0424
24102SOL    HW173747   1.602   6.319   5.776  0.0260 -0.4322  0.0212
24102SOL    HW273748   1.547   6.427   5.866  0.2778 -0.4305  0.1737
24103SOL     OW73749   2.404   4.801   4.804 -0.3926 -0.2487 -0.0159
24103SOL    HW173750   2.436   4.813   4.894 -1.0429  1.0264  0.0600
24103SOL    HW273751   2.473   4.751   4.761  0.8466  0.8361  0.6562
24104SOL     OW73752   1.320   6.058  10.015  0.1622  0.1246  0.1300
24104SOL    HW173753   1.279   6.144  10.006  1.1862  0.6061 -0.0550
24104SOL    HW273754   1.413   6.075  10.007  0.3578 -1.0644 -0.3239
24105SOL     OW73755   2.365   1.433  12.061 -0.0932  0.1262  0.0412
24105SOL    HW173756   2.314   1.357  12.089 -0.2641  0.5623  0.9701
24105SOL    HW273757   2.347   1.442  11.968  0.5025 -1.3984 -0.2519
24106SOL     OW73758   2.468   1.648   8.399  0.0394 -0.5225  0.0080
24106SOL    HW173759   2.395   1.630   8.459  0.6778 -1.0608  0.6500
24106SOL    HW273760   2.481   1.565   8.353  0.3531 -0.4752  0.0135
24107SOL     OW73761   1.842   2.607   7.590  0.4521 -0.2892  0.8222
24107SOL    HW173762   1.802   2.693   7.583  0.1167 -0.3919  1.4169
24107SOL    HW273763   1.780   2.555   7.640 -0.1931 -1.4164 -1.0503
24108SOL     OW73764   6.043   7.375   6.893 -0.3579  0.1356  0.4100
24108SOL    HW173765   5.961   7.336   6.923  0.1347 -0.6173  0.8038
24108SOL    HW273766   6.074   7.428   6.967 -0.9101  1.1329 -0.0428
24109SOL     OW73767   0.817   4.043  11.221  0.6488 -0.6094 -0.6220
24109SOL    HW173768   0.809   4.105  11.293 -0.1700 -2.3951  0.8932
24109SOL    HW273769   0.757   4.077  11.154  0.9640  0.7504 -0.2468
24110SOL     OW73770   0.061   0.150   0.622 -0.6432 -0.6737 -0.4140
24110SOL    HW173771   0.086   0.225   0.568  1.6707 -1.0031  0.1053
24110SOL    HW273772   0.052   0.186   0.710  0.0127 -0.9211 -0.2454
24111SOL     OW73773   2.948   7.720   2.252  0.6244  0.1611 -0.3000
24111SOL    HW173774   2.869   7.773   2.245  1.6492  1.7579 -0.0772
24111SOL    HW273775   2.974   7.727   2.344  1.9844  1.1177 -0.7260
24112SOL     OW73776   0.299   4.952  12.383 -0.3664  0.0536  0.1376
24112SOL    HW173777   0.252   5.006  12.447  3.5862  2.3471  1.4463
24112SOL    HW273778   0.279   4.992  12.298 -0.6523  1.0568  0.6568
24113SOL     OW73779   5.292   6.051   8.548 -0.0591 -0.1240  0.0586
24113SOL    HW173780   5.219   6.015   8.598  0.9373 -0.7827  1.0822
24113SOL    HW273781   5.301   5.992   8.473 -0.9318  0.2977 -0.3873
24114SOL     OW73782   6.799   0.402   2.830  0.4926 -0.3668 -0.1726
24114SOL    HW173783   6.756   0.322   2.862 -0.7395 -0.5079 -2.0387
24114SOL    HW273784   6.727   0.460   2.805  1.3477  0.0245 -1.8879
24115SOL     OW73785   7.559   0.372  10.196 -0.5063  0.2920  0.0648
24115SOL    HW173786   7.538   0.457  10.235 -1.7529 -0.4135  1.0194
24115SOL    HW273787   7.574   0.314  10.271  2.2319  0.0587 -0.5698
24116SOL     OW73788   3.250   7.071   9.519 -0.2831 -0.4383 -0.1132
24116SOL    HW173789   3.263   6.980   9.492 -0.8380 -0.3003 -0.8797
24116SOL    HW273790   3.254   7.069   9.614 -1.1820 -1.4080 -0.0807
24117SOL     OW73791   7.386   0.444  11.057 -0.1060 -0.3079  0.0207
24117SOL    HW173792   7.346   0.474  10.976 -1.0074 -0.9621  0.2095
24117SOL    HW273793   7.478   0.470  11.049 -0.9979  3.9788  0.8594
24118SOL     OW73794   6.271   7.856   3.369 -0.4001  0.1687 -0.5170
24118SOL    HW173795   6.228   7.804   3.437  1.1735 -0.2992  0.1655
24118SOL    HW273796   6.253   7.810   3.288  0.4328 -1.1446  0.0031
24119SOL     OW73797   3.076   2.549   2.230 -0.0989 -0.0165 -0.2482
24119SOL    HW173798   3.068   2.642   2.254 -0.4049 -0.3689  1.1193
24119SOL    HW273799   3.126   2.510   2.302  1.6642 -0.5962 -1.6939
24120SOL     OW73800   5.925   1.889   3.906  0.1058  0.0566  0.1476
24120SOL    HW173801   5.832   1.870   3.920 -0.4359  1.5923 -0.9630
24120SOL    HW273802   5.928   1.983   3.890  1.7041 -0.1302 -0.9588
24121SOL     OW73803   7.273   5.637   9.282  0.0853 -0.0579  0.3508
24121SOL    HW173804   7.186   5.677   9.284 -0.4297 -1.1134 -0.4065
24121SOL    HW273805   7.294   5.630   9.189  0.8184 -0.1832  0.5198
24122SOL     OW73806   2.928   1.409   1.460 -0.3028 -0.1716  0.2207
24122SOL    HW173807   2.895   1.320   1.467  0.8518 -0.5831  0.7951
24122SOL    HW273808   3.022   1.401   1.477 -0.4265  1.3637  1.9396
24123SOL     OW73809   0.841   5.647   1.652  0.1599 -0.0254 -0.4042
24123SOL    HW173810   0.778   5.582   1.620  1.0488 -0.0954 -2.1503
24123SOL    HW273811   0.849   5.710   1.580  2.4156 -0.2831 -0.4530
24124SOL     OW73812   3.077   7.350   2.485  0.0202  0.2831  0.0019
24124SOL    HW173813   3.038   7.264   2.472 -0.7645  0.8664 -1.9999
24124SOL    HW273814   3.172   7.334   2.485 -0.1457 -0.7209  1.0545
24125SOL     OW73815   3.900   1.137   1.650 -0.4366  0.4984 -0.1291
24125SOL    HW173816   3.945   1.177   1.576 -2.4148  0.6797 -1.3221
24125SOL    HW273817   3.812   1.174   1.647 -0.5897  0.4790  2.3308
24126SOL     OW73818   1.408   6.106   9.130 -0.6427  0.0931 -0.3759
24126SOL    HW173819   1.423   6.173   9.196 -1.0391  2.1072 -2.2211
24126SOL    HW273820   1.412   6.153   9.046  1.0514 -2.5190 -1.9060
24127SOL     OW73821   2.242   6.875   1.769  0.5706 -0.1199 -0.0328
24127SOL    HW173822   2.318   6.838   1.723  1.5103  1.1343  0.4491
24127SOL    HW273823   2.180   6.896   1.700  1.1426 -0.0895 -0.5540
24128SOL     OW73824   4.240   5.845   0.090  0.1564 -0.2698 -0.0638
24128SOL    HW173825   4.328   5.852   0.052  0.4309  0.3158  0.6498
24128SOL    HW273826   4.219   5.752   0.086  0.7063 -0.3805 -0.4675
24129SOL     OW73827   1.989   0.454   6.203 -0.0853 -0.1101 -0.0928
24129SOL    HW173828   2.000   0.403   6.283  0.3585  0.7914  0.4446
24129SOL    HW273829   1.898   0.439   6.177 -0.9483  1.2667  1.8297
24130SOL     OW73830   6.479   1.896   9.110 -0.2564  0.4081 -0.0667
24130SOL    HW173831   6.477   1.925   9.201 -0.2032  0.9971 -0.2482
24130SOL    HW273832   6.398   1.930   9.072  0.8714  2.4073 -0.8873
24131SOL     OW73833   7.626   3.975  11.256  0.0871  0.1253  0.0641
24131SOL    HW173834   7.545   3.998  11.300 -0.2358 -0.3687 -0.2585
24131SOL    HW273835   7.687   3.953  11.326  0.2839  1.5118  0.3613
24132SOL     OW73836   0.583   3.018  11.448 -0.1735  0.2876 -0.1404
24132SOL    HW173837   0.548   2.981  11.368 -0.0709  0.8882 -0.4661
24132SOL    HW273838   0.669   2.976  11.458 -1.2112 -1.7484  1.0544
24133SOL     OW73839   3.854   0.906   7.463  0.2647  0.5914 -0.2181
24133SOL    HW173840   3.851   0.863   7.549 -2.0741  2.2525  0.6556
24133SOL    HW273841   3.889   0.840   7.404 -1.1399 -1.7682  1.4288
24134SOL     OW73842   4.671   4.442   4.353 -0.0437 -0.2882  0.6830
24134SOL    HW173843   4.636   4.516   4.304 -0.3051 -0.3024  0.8439
24134SOL    HW273844   4.766   4.450   4.346 -0.0719  0.0663  0.7098
24135SOL     OW73845   6.995   2.276  11.187  0.0463  0.3998 -0.0202
24135SOL    HW173846   7.019   2.336  11.116 -0.3602 -0.9267 -1.3467
24135SOL    HW273847   7.038   2.194  11.163  0.2786  0.0489  1.5374
24136SOL     OW73848   4.085   2.801   2.019 -0.2344  0.3914  0.4651
24136SOL    HW173849   4.091   2.748   2.099 -2.6486  0.8624  1.0236
24136SOL    HW273850   4.088   2.737   1.948  0.8219 -0.1239  0.9428
24137SOL     OW73851   1.125   7.954   6.146 -0.9623 -0.0353  0.2992
24137SOL    HW173852   1.159   8.043   6.151 -0.1417 -0.3153 -0.0650
24137SOL    HW273853   1.194   7.905   6.102 -1.4422 -0.8353  0.4220
24138SOL     OW73854   3.249   2.994   6.988  0.0281  0.2280 -0.0205
24138SOL    HW173855   3.182   3.019   6.925  0.4419 -0.0062 -0.5685
24138SOL    HW273856   3.225   2.905   7.014 -0.2065  0.3669  0.2436
24139SOL     OW73857   3.179   6.650   9.907  0.2974 -0.0019  0.1891
24139SOL    HW173858   3.192   6.649  10.002 -1.7542  2.3850  0.6091
24139SOL    HW273859   3.101   6.596   9.893  2.0187 -2.4820 -0.5582
24140SOL     OW73860   6.251   4.506   1.529  0.4158 -0.2302  0.3210
24140SOL    HW173861   6.171   4.495   1.479  0.5090 -1.5638  0.4188
24140SOL    HW273862   6.317   4.532   1.464  0.6393 -2.3688 -0.3704
24141SOL     OW73863   2.166   6.171   3.758 -0.0855 -0.1345  0.2864
24141SOL    HW173864   2.221   6.220   3.697 -0.1318  0.5278  0.7584
24141SOL    HW273865   2.223   6.102   3.791 -0.5775 -1.6322 -1.8104
24142SOL     OW73866   1.310   7.246   1.739  0.2062  0.2582 -0.3713
24142SOL    HW173867   1.289   7.155   1.720  0.8356 -0.4331  1.9442
24142SOL    HW273868   1.225   7.287   1.755  0.0531 -0.7164  1.6043
24143SOL     OW73869   2.670   4.488   4.134 -0.6375 -0.2600  0.0671
24143SOL    HW173870   2.622   4.410   4.162 -3.3857  0.4474 -2.2363
24143SOL    HW273871   2.718   4.460   4.056  0.0236 -0.1452  0.4311
24144SOL     OW73872   2.657   5.337   8.692  0.0655 -0.0632 -0.4332
24144SOL    HW173873   2.617   5.332   8.605 -0.1671  0.8012 -0.3928
24144SOL    HW273874   2.691   5.427   8.697  0.9004 -0.3918  0.0171
24145SOL     OW73875   7.712   7.673   1.731  0.5624  0.1656 -0.3649
24145SOL    HW173876   7.700   7.763   1.762 -1.2377 -0.1531 -0.0403
24145SOL    HW273877   7.793   7.676   1.681  0.7413  1.8858 -0.0407
24146SOL     OW73878   6.478   5.674   2.219 -0.4813  0.5082 -0.0608
24146SOL    HW173879   6.402   5.664   2.277  0.2294  2.9738  1.4699
24146SOL    HW273880   6.546   5.621   2.260 -0.8811 -0.3586 -0.4961
24147SOL     OW73881   3.345   7.088   7.531 -0.1051  0.4635 -0.2775
24147SOL    HW173882   3.428   7.044   7.545 -0.4277  0.2776  1.2740
24147SOL    HW273883   3.354   7.172   7.576 -1.4184 -0.4069  1.7810
24148SOL     OW73884   6.334   4.771   4.217 -0.9623  0.5674  0.4391
24148SOL    HW173885   6.374   4.715   4.150  1.2128  3.0365 -0.4756
24148SOL    HW273886   6.310   4.710   4.287  0.5691 -1.6077 -0.8082
24149SOL     OW73887   7.925   3.181   6.728  0.2376 -0.0020  0.1238
24149SOL    HW173888   7.846   3.147   6.771  1.4549 -0.4196  2.1647
24149SOL    HW273889   7.923   3.275   6.747 -0.5347  0.2509 -1.1518
24150SOL     OW73890   3.255   3.088   4.198 -0.1103  0.2678  0.0626
24150SOL    HW173891   3.334   3.141   4.205 -1.0044  1.5812  0.7808
24150SOL    HW273892   3.271   3.013   4.255  2.4052 -1.9997 -3.3191
24151SOL     OW73893   0.411   2.917   2.912 -0.1397  0.1483  0.0445
24151SOL    HW173894   0.395   2.844   2.972 -0.6856 -0.4525 -0.8104
24151SOL    HW273895   0.338   2.977   2.927  0.6502  0.8718  1.2161
24152SOL     OW73896   5.745   6.008   7.367 -0.0921  0.3953 -0.4401
24152SOL    HW173897   5.796   6.064   7.309  0.6533 -1.0946 -1.2752
24152SOL    HW273898   5.715   5.936   7.312 -0.9542 -0.0898  0.6134
24153SOL     OW73899   1.375   3.463   9.798  0.0030  0.5303 -0.1513
24153SOL    HW173900   1.394   3.531   9.863 -0.8330  0.7691 -0.1461
24153SOL    HW273901   1.316   3.506   9.736 -0.0009 -0.0016 -0.5157
24154SOL     OW73902   0.645   7.917   9.207  0.5562 -0.1418 -0.4223
24154SOL    HW173903   0.704   7.970   9.154 -0.0664 -1.3652 -2.4460
24154SOL    HW273904   0.572   7.976   9.228  1.6844  0.8980  0.7303
24155SOL     OW73905   6.985   2.019   7.903  0.1599 -0.1923  0.4189
24155SOL    HW173906   7.035   2.096   7.930  1.4700 -0.5944 -0.7572
24155SOL    HW273907   6.933   2.049   7.829 -0.3873 -0.0974  0.8381
24156SOL     OW73908   0.056   7.828   5.083  0.4417  0.1036  0.5112
24156SOL    HW173909   0.144   7.841   5.047  0.5898  1.0485  1.1526
24156SOL    HW273910  -0.002   7.873   5.021  0.5707  0.6785  0.7925
24157SOL     OW73911   6.111   2.402   1.880  0.5510 -0.6247  0.4995
24157SOL    HW173912   6.096   2.420   1.787 -0.1892 -1.4349  0.4440
24157SOL    HW273913   6.024   2.382   1.914  0.7938 -0.1531  1.4110
24158SOL     OW73914   1.458   6.765   9.331  0.3174  0.3605 -0.2986
24158SOL    HW173915   1.545   6.728   9.321 -0.1780 -1.4137  1.2192
24158SOL    HW273916   1.460   6.809   9.416 -0.6003 -0.8968  0.4115
24159SOL     OW73917   1.138   2.011   1.160  0.1291  0.0064 -0.3630
24159SOL    HW173918   1.126   1.916   1.150 -2.1007  0.1004  0.7902
24159SOL    HW273919   1.064   2.050   1.114  0.5802  1.1645 -0.1338
24160SOL     OW73920   1.615   7.258   8.882 -0.0235  0.2049 -0.9406
24160SOL    HW173921   1.711   7.251   8.888  0.0838  0.8927 -1.6426
24160SOL    HW273922   1.588   7.290   8.967  0.4425  0.6157 -0.9417
24161SOL     OW73923   0.695   6.018   5.936  0.1076 -0.7846  0.2176
24161SOL    HW173924   0.697   5.989   6.027  0.1673  0.0427  0.4940
24161SOL    HW273925   0.672   6.111   5.941 -0.5245 -0.8793 -0.6558
24162SOL     OW73926   3.463   4.081   8.136 -0.4323 -0.3232  0.2671
24162SOL    HW173927   3.423   4.038   8.061 -2.3299 -0.1056  1.1020
24162SOL    HW273928   3.407   4.156   8.154  0.8465  0.4932  0.9870
24163SOL     OW73929   6.102   0.660   4.509  0.3897  0.6939  0.1362
24163SOL    HW173930   6.077   0.591   4.448  2.6592  0.1381 -0.2500
24163SOL    HW273931   6.187   0.632   4.544  0.4728  2.3719  1.4128
24164SOL     OW73932   7.037   4.804   6.090 -0.1617 -0.2538  0.1053
24164SOL    HW173933   7.013   4.896   6.079  2.0242  0.2634 -0.9902
24164SOL    HW273934   7.133   4.803   6.083 -0.1931 -2.7954 -1.4590
24165SOL     OW73935   0.370   4.102   8.396  0.2975 -0.4629  0.0787
24165SOL    HW173936   0.303   4.062   8.452  1.6391 -1.0311  1.3494
24165SOL    HW273937   0.437   4.034   8.386  0.6616  0.0570 -1.2454
24166SOL     OW73938   5.779   4.642  10.750  0.4161  0.4705  0.0904
24166SOL    HW173939   5.817   4.567  10.705 -0.3593 -0.3946  0.8252
24166SOL    HW273940   5.731   4.689  10.682  2.0923  1.1532 -0.6859
24167SOL     OW73941   6.723   1.933   0.558 -0.0755 -0.9712 -0.4127
24167SOL    HW173942   6.789   1.894   0.616 -0.3384 -1.0110 -0.1350
24167SOL    HW273943   6.765   2.011   0.523  0.1988 -1.1161 -0.4114
24168SOL     OW73944   2.941   0.885   4.247 -0.2361 -0.2404  0.4704
24168SOL    HW173945   2.903   0.828   4.180  2.5775 -0.3962 -1.1555
24168SOL    HW273946   3.009   0.832   4.289 -0.0675  0.7670  1.5389
24169SOL     OW73947   3.449   3.356   5.513 -0.1672  0.5602 -0.1086
24169SOL    HW173948   3.488   3.435   5.549  0.0815  1.0759 -1.4535
24169SOL    HW273949   3.484   3.350   5.424 -2.8002  0.8248 -1.2499
24170SOL     OW73950   5.667   1.382  10.332  0.2282 -0.8201  0.2337
24170SOL    HW173951   5.708   1.328  10.264  1.5843 -0.6868  0.9142
24170SOL    HW273952   5.649   1.322  10.404  0.4789 -0.6318  0.4575
24171SOL     OW73953   7.607   7.401   5.330  0.2372 -0.0360 -0.1101
24171SOL    HW173954   7.560   7.480   5.357 -1.1794 -1.3236  1.3375
24171SOL    HW273955   7.698   7.429   5.323 -0.1175  1.5515  1.0726
24172SOL     OW73956   6.454   2.411  11.145 -0.4801 -0.0113 -0.0570
24172SOL    HW173957   6.443   2.505  11.162  0.0909  0.3710 -1.6090
24172SOL    HW273958   6.546   2.394  11.162 -0.2157  0.0824 -1.3152
24173SOL     OW73959   4.427   6.424  10.658  0.6112  0.6189 -0.0719
24173SOL    HW173960   4.426   6.517  10.679  0.9536  0.6156 -0.0461
24173SOL    HW273961   4.426   6.420  10.563  0.6713  0.6476 -0.0730
24174SOL     OW73962   7.205   0.238   2.784 -0.0944  0.2931 -0.4544
24174SOL    HW173963   7.169   0.273   2.865 -0.5997  1.8262 -1.2943
24174SOL    HW273964   7.133   0.243   2.721  0.4506 -0.3065 -1.1552
24175SOL     OW73965   4.970   0.520   9.174  0.2562  0.4472  0.1928
24175SOL    HW173966   5.012   0.486   9.253 -1.3576  0.4447  1.0856
24175SOL    HW273967   4.885   0.553   9.204  0.1183  1.5743 -1.3430
24176SOL     OW73968   7.279   2.408   8.378 -0.1120 -0.3810  0.1353
24176SOL    HW173969   7.193   2.388   8.342  0.3085 -1.3798 -0.3525
24176SOL    HW273970   7.269   2.396   8.472 -0.2992 -1.3801  0.0052
24177SOL     OW73971   0.042   1.223  12.044  0.1127  0.5655 -0.2799
24177SOL    HW173972  -0.025   1.287  12.067  0.9497  1.5777 -0.5386
24177SOL    HW273973   0.073   1.188  12.128 -1.8986 -1.2097 -0.2079
24178SOL     OW73974   4.218   7.324   4.095 -0.1982  0.0612  0.0839
24178SOL    HW173975   4.213   7.229   4.089  0.7223  0.0921 -1.6011
24178SOL    HW273976   4.132   7.355   4.068  0.6234 -0.2140 -3.1970
24179SOL     OW73977   1.558   4.734   6.623  0.1433  0.3981  0.3211
24179SOL    HW173978   1.556   4.674   6.698  0.1878  0.1207  0.1049
24179SOL    HW273979   1.583   4.818   6.659 -0.1816  0.3460  0.6752
24180SOL     OW73980   4.169   2.786   8.108 -0.8920  0.3276  0.5032
24180SOL    HW173981   4.252   2.739   8.100 -1.0916  0.3065 -2.6284
24180SOL    HW273982   4.196   2.878   8.119 -0.3862  0.3388 -0.6022
24181SOL     OW73983   4.855   1.282   5.828 -0.0395 -0.4794 -0.1547
24181SOL    HW173984   4.937   1.298   5.782  1.9783 -0.8821  2.9898
24181SOL    HW273985   4.820   1.370   5.844 -0.1391 -0.2926 -1.3041
24182SOL     OW73986   0.144   1.353   8.493  0.3540  0.1014 -0.1678
24182SOL    HW173987   0.051   1.374   8.491  0.2036 -0.5495 -0.4537
24182SOL    HW273988   0.161   1.325   8.583 -0.4982 -2.9503 -0.8214
24183SOL     OW73989   0.903   1.694  11.214 -0.1711 -0.1281  0.2531
24183SOL    HW173990   0.906   1.756  11.287 -2.9969 -0.1006  0.4468
24183SOL    HW273991   0.813   1.697  11.183  0.1821 -2.4050 -1.2722
24184SOL     OW73992   1.238   6.157  10.712 -0.1182 -0.5765 -0.7485
24184SOL    HW173993   1.248   6.141  10.618 -0.0952 -0.3604 -0.7832
24184SOL    HW273994   1.157   6.207  10.719  0.6621  0.7459 -0.8017
24185SOL     OW73995   7.336   1.508   0.908 -0.1188  0.2589 -0.0442
24185SOL    HW173996   7.286   1.580   0.870  0.8451  1.3380  0.6776
24185SOL    HW273997   7.386   1.472   0.834 -0.9756 -0.0062 -0.5069
24186SOL     OW73998   3.620   1.601   3.287 -0.2425 -0.0300 -0.7393
24186SOL    HW173999   3.581   1.628   3.371  1.1685  0.5558 -0.2410
24186SOL    HW274000   3.617   1.505   3.289  2.5344 -0.2045  1.4379
24187SOL     OW74001   0.533   6.365   0.812 -0.0857 -0.3589  0.6681
24187SOL    HW174002   0.520   6.373   0.907  1.6638 -0.3134  0.9536
24187SOL    HW274003   0.465   6.419   0.773  0.1402  0.9457  1.9760
24188SOL     OW74004   6.110   0.542   9.168 -0.4921 -0.6193 -0.3659
24188SOL    HW174005   6.180   0.576   9.112 -0.2516  0.1553  0.3903
24188SOL    HW274006   6.103   0.449   9.143  0.5365 -0.6161 -0.7250
24189SOL     OW74007   7.889   1.444   0.507 -0.5200 -0.9504  0.4606
24189SOL    HW174008   7.867   1.397   0.587 -0.3132  0.5000  1.4025
24189SOL    HW274009   7.831   1.520   0.508  1.6613  0.8044  0.9277
24190SOL     OW74010   1.552   5.179   8.731  0.2524 -0.1077 -0.2313
24190SOL    HW174011   1.598   5.108   8.775  0.0096  0.0416  0.2659
24190SOL    HW274012   1.620   5.225   8.681  0.6641  0.1962  0.6014
24191SOL     OW74013   0.429   2.030   8.137  0.4936 -0.2532  0.6523
24191SOL    HW174014   0.488   2.097   8.173  0.6083  0.2661 -0.4764
24191SOL    HW274015   0.393   2.069   8.058 -2.4081 -0.0303  1.9585
24192SOL     OW74016   5.130   2.489   8.604  0.1244  0.4305  0.2634
24192SOL    HW174017   5.208   2.446   8.570 -1.2008 -0.7072 -1.5934
24192SOL    HW274018   5.065   2.479   8.533 -2.1270  0.0164  2.2457
24193SOL     OW74019   5.071   7.394   9.051  0.4210  0.3014 -0.7421
24193SOL    HW174020   5.150   7.340   9.058 -0.8553 -1.4244  1.2095
24193SOL    HW274021   5.070   7.422   8.959  1.7160 -2.1237 -1.5885
24194SOL     OW74022   2.195   1.775   6.997 -0.4620 -0.2645  0.5698
24194SOL    HW174023   2.125   1.828   6.959  0.4838  0.5979 -0.0142
24194SOL    HW274024   2.222   1.717   6.927  0.4935  0.5254  0.2599
24195SOL     OW74025   5.724   7.023  10.200 -0.3384 -0.0913 -0.4069
24195SOL    HW174026   5.691   6.985  10.119 -1.0424 -1.9511  0.7058
24195SOL    HW274027   5.684   6.971  10.270 -1.3556  2.6657  1.2655
24196SOL     OW74028   7.449   0.824   1.579 -0.1176 -0.2301  0.1337
24196SOL    HW174029   7.483   0.847   1.666  0.1932 -0.2233  0.0127
24196SOL    HW274030   7.503   0.751   1.551  0.6581  0.5953 -0.6061
24197SOL     OW74031   1.195   5.573  11.046  0.4621  0.4657  0.2481
24197SOL    HW174032   1.200   5.620  11.129  1.5076 -3.2194  2.4942
24197SOL    HW274033   1.115   5.520  11.054  1.3423 -1.0084 -0.4340
24198SOL     OW74034   3.823   1.489  12.196  0.1319  0.1190  0.5727
24198SOL    HW174035   3.851   1.474  12.106 -0.0977 -1.1544  0.6947
24198SOL    HW274036   3.814   1.584  12.203  2.0620  0.3975 -0.1646
24199SOL     OW74037   6.268   1.439   3.866 -0.5785  0.1566 -0.5713
24199SOL    HW174038   6.319   1.487   3.800 -1.5000  0.2520 -1.2386
24199SOL    HW274039   6.233   1.508   3.922 -0.2603  0.1133 -0.3149
24200SOL     OW74040   7.446   3.356   0.882  0.3986 -0.0771  0.2287
24200SOL    HW174041   7.378   3.289   0.891  0.2833  0.1586  1.2315
24200SOL    HW274042   7.509   3.336   0.951  2.3897 -1.4310 -1.8287
24201SOL     OW74043   4.023   5.884  10.779  0.0950  0.4402  0.1111
24201SOL    HW174044   4.061   5.891  10.691 -1.3424 -1.2984 -0.7114
24201SOL    HW274045   4.081   5.825  10.826  1.7644  2.6196  0.9152
24202SOL     OW74046   1.674   3.796   9.696  0.1833 -0.0081  0.1735
24202SOL    HW174047   1.620   3.802   9.617  1.0925  0.1438 -0.4539
24202SOL    HW274048   1.623   3.840   9.764 -1.0494 -0.9927 -0.0815
24203SOL     OW74049   6.145   5.825   7.281  0.0902 -0.2852  0.0366
24203SOL    HW174050   6.099   5.742   7.291 -1.5922  0.7979  1.8904
24203SOL    HW274051   6.171   5.849   7.370 -0.4262  1.7099 -0.3131
24204SOL     OW74052   5.110   6.831  10.652 -0.4154 -0.4073  0.0258
24204SOL    HW174053   5.118   6.739  10.677  0.6937  0.1570  1.9191
24204SOL    HW274054   5.157   6.838  10.569  0.8186 -1.2666  0.6299
24205SOL     OW74055   4.891   0.031   0.400 -0.1282  0.4861  0.0892
24205SOL    HW174056   4.869  -0.045   0.346 -0.4408  0.7805 -0.1951
24205SOL    HW274057   4.968   0.002   0.451 -0.9669 -0.4342  0.8757
24206SOL     OW74058   4.659   5.378   6.631  0.1347  0.6260 -0.0391
24206SOL    HW174059   4.743   5.390   6.676 -0.2874 -1.1005  1.3247
24206SOL    HW274060   4.605   5.450   6.663  0.1794  0.0323  1.5162
24207SOL     OW74061   6.093   6.803   1.798 -0.1401 -0.0660 -0.2723
24207SOL    HW174062   6.026   6.864   1.827 -1.1898 -0.5819 -1.5090
24207SOL    HW274063   6.165   6.858   1.766 -1.1438  0.5568 -1.5323
24208SOL     OW74064   3.660   5.185   4.678 -0.0897  0.2941  0.0749
24208SOL    HW174065   3.733   5.237   4.643  0.4175  0.3387  1.1747
24208SOL    HW274066   3.640   5.225   4.762 -0.2272 -0.7959  0.5748
24209SOL     OW74067   2.833   7.566   6.431 -0.4172  0.1973  0.0573
24209SOL    HW174068   2.893   7.616   6.376  0.8963 -0.8243  0.4937
24209SOL    HW274069   2.821   7.484   6.384 -0.7400  0.0354  0.4175
24210SOL     OW74070   2.169   3.173   3.260  0.0308  0.5237 -0.1327
24210SOL    HW174071   2.109   3.170   3.185  0.1544 -1.1899 -0.2065
24210SOL    HW274072   2.159   3.261   3.295 -1.8170  0.6065 -0.7359
24211SOL     OW74073   4.492   2.279   7.697  0.2776  0.2691  0.6267
24211SOL    HW174074   4.474   2.196   7.653  0.9735  0.6181 -0.3728
24211SOL    HW274075   4.579   2.267   7.737 -0.2376  0.0443  1.7107
24212SOL     OW74076   0.912   6.977  10.788  0.1031 -0.3838  0.6295
24212SOL    HW174077   0.873   7.044  10.843  0.0386 -0.6873  0.9595
24212SOL    HW274078   0.966   6.925  10.848 -0.9053 -1.4459  0.6467
24213SOL     OW74079   5.770   3.562   4.045  0.5360  0.7018 -0.4109
24213SOL    HW174080   5.721   3.483   4.067  2.1028 -0.5028 -1.0511
24213SOL    HW274081   5.705   3.632   4.048 -0.5610 -0.3168  1.8767
24214SOL     OW74082   0.057   4.346   4.441  0.0765 -0.2677  0.2755
24214SOL    HW174083  -0.002   4.273   4.463 -2.2521  1.6444  0.8373
24214SOL    HW274084   0.092   4.374   4.526  0.3405 -0.2047  0.1468
24215SOL     OW74085   0.663   7.541   2.671 -0.0507  0.2404  0.6297
24215SOL    HW174086   0.702   7.628   2.685 -0.3336  0.3415  0.8121
24215SOL    HW274087   0.598   7.555   2.602  1.6915 -0.3586 -1.2429
24216SOL     OW74088   4.048   6.367  10.915  0.4334  0.0398  0.3750
24216SOL    HW174089   4.050   6.282  10.871  4.1534 -0.2821  0.8327
24216SOL    HW274090   3.988   6.354  10.988  0.9075 -2.2619  0.4580
24217SOL     OW74091   4.300   6.616   9.527 -0.3383 -0.2879 -0.1934
24217SOL    HW174092   4.259   6.530   9.529 -1.5959  0.2106 -2.0539
24217SOL    HW274093   4.242   6.672   9.579  0.9395 -0.6599  1.7783
24218SOL     OW74094   0.579   2.817  10.070 -1.0075 -0.2062  0.5597
24218SOL    HW174095   0.515   2.847  10.005 -0.0477 -0.9911 -0.7995
24218SOL    HW274096   0.620   2.741  10.029 -0.7904 -1.1036  2.3640
24219SOL     OW74097   7.372   4.063   2.215  0.3390 -0.6562 -0.3844
24219SOL    HW174098   7.433   4.134   2.197  0.3491 -0.6186 -0.1965
24219SOL    HW274099   7.427   3.988   2.237  0.3768  0.4811  4.4022
24220SOL     OW74100   0.248   1.016   6.823 -0.3012 -0.2170 -0.0849
24220SOL    HW174101   0.310   0.975   6.762  0.2266  0.7249 -0.1989
24220SOL    HW274102   0.172   1.037   6.769  0.2422  0.7881 -0.4700
24221SOL     OW74103   1.335   5.553  12.009  0.0733 -0.5972  0.6354
24221SOL    HW174104   1.426   5.576  11.990 -0.6156  0.8001 -1.3047
24221SOL    HW274105   1.303   5.514  11.928 -1.7121  1.1596  0.4205
24222SOL     OW74106   6.940   2.309   9.214  0.1042 -0.5335 -0.3132
24222SOL    HW174107   7.003   2.357   9.269 -0.3902 -1.1181  0.7919
24222SOL    HW274108   6.989   2.232   9.184  1.0525  0.7933 -2.4737
24223SOL     OW74109   4.845   4.738   0.829  0.5225  0.1505 -0.6015
24223SOL    HW174110   4.890   4.681   0.892  0.8051  1.0280  0.0117
24223SOL    HW274111   4.905   4.812   0.818 -0.2925  0.8099 -0.6188
24224SOL     OW74112   2.173   2.554   9.549  0.4393  0.6104  0.5359
24224SOL    HW174113   2.160   2.575   9.457  0.7952 -1.8514 -0.1507
24224SOL    HW274114   2.085   2.549   9.586  0.2218  0.2769 -0.0216
24225SOL     OW74115   3.449   7.566   2.254 -0.3882 -0.3147  0.1542
24225SOL    HW174116   3.430   7.657   2.276 -2.1564 -0.5736 -0.1933
24225SOL    HW274117   3.420   7.556   2.164  0.6310 -1.0193 -0.1219
24226SOL     OW74118   7.660   1.350   4.149 -0.2775 -0.0057 -0.4215
24226SOL    HW174119   7.630   1.415   4.212 -0.1619  0.4884 -0.8682
24226SOL    HW274120   7.737   1.310   4.190 -0.6107 -0.1656  0.0436
24227SOL     OW74121   1.009   2.030   6.100 -0.4161  0.0988 -0.5221
24227SOL    HW174122   0.993   2.097   6.166 -0.2086  0.6055 -0.9762
24227SOL    HW274123   1.102   2.039   6.079 -0.2333 -0.7727 -0.1135
24228SOL     OW74124   6.462   6.273   9.254  0.7330  0.1270 -0.5049
24228SOL    HW174125   6.367   6.266   9.243  0.7905 -0.2572 -0.7618
24228SOL    HW274126   6.476   6.364   9.280  0.3417  0.3399 -1.0169
24229SOL     OW74127   3.117   3.673   7.272 -0.3427 -0.0651 -0.2421
24229SOL    HW174128   3.184   3.741   7.270  0.0939 -0.4966 -0.3403
24229SOL    HW274129   3.116   3.637   7.183 -0.0121 -0.7260  0.0128
24230SOL     OW74130   3.532   1.588   3.580  0.0056 -0.0157  0.3494
24230SOL    HW174131   3.626   1.583   3.600  0.3966 -0.2810 -1.3950
24230SOL    HW274132   3.511   1.505   3.539 -0.8512  0.3060  0.1078
24231SOL     OW74133   5.250   3.236   6.311  0.2395 -0.0121  0.3674
24231SOL    HW174134   5.237   3.143   6.332 -0.2199  0.1787  0.9455
24231SOL    HW274135   5.210   3.246   6.224 -2.0379  0.1755  1.3571
24232SOL     OW74136   1.252   1.402   0.192  0.8997  0.6343  0.5578
24232SOL    HW174137   1.346   1.414   0.202  1.4449  0.1589 -2.7581
24232SOL    HW274138   1.219   1.489   0.167  0.5626  0.6454  1.0251
24233SOL     OW74139   4.725   0.627   7.549 -0.1314  0.2720  0.0531
24233SOL    HW174140   4.654   0.690   7.560 -0.2934 -0.1417  1.6282
24233SOL    HW274141   4.682   0.546   7.523 -0.2225  0.0672  0.8356
24234SOL     OW74142   2.968   5.890   7.003  0.0239 -0.1588  0.1304
24234SOL    HW174143   2.893   5.947   7.019  0.8897  0.9019  0.5129
24234SOL    HW274144   3.044   5.948   7.008  0.8413 -1.1184 -0.7469
24235SOL     OW74145   0.675   6.115   2.019  0.3632  0.5094  0.6357
24235SOL    HW174146   0.653   6.191   1.965 -1.4034  1.6768  2.8489
24235SOL    HW274147   0.707   6.152   2.101  0.2805 -1.1308  1.4481
24236SOL     OW74148   5.942   6.479   3.628  0.7196 -0.2167  0.1313
24236SOL    HW174149   5.894   6.397   3.621  1.2217 -0.5023 -0.0362
24236SOL    HW274150   5.960   6.489   3.721 -0.2182  0.2219  0.2731
24237SOL     OW74151   5.961   0.619  12.083 -0.1167  0.1693 -0.0231
24237SOL    HW174152   5.877   0.606  12.128 -0.1379  0.8230  0.1269
24237SOL    HW274153   5.967   0.544  12.024 -1.4179  0.7731 -0.9696
24238SOL     OW74154   6.534   2.428   9.479 -0.6289  0.2851 -0.0303
24238SOL    HW174155   6.547   2.416   9.385 -0.0775  0.9560 -0.0483
24238SOL    HW274156   6.562   2.518   9.495  2.2775 -0.7336  1.2937
24239SOL     OW74157   6.395   7.264   4.042  1.0064  0.4191  0.0425
24239SOL    HW174158   6.379   7.224   3.956  2.7550 -0.3688  0.0468
24239SOL    HW274159   6.476   7.224   4.073  0.8624  1.3126  1.7061
24240SOL     OW74160   3.776   1.690   2.367 -0.2546  0.7583 -0.3766
24240SOL    HW174161   3.815   1.743   2.298  0.8968 -0.2868 -0.5643
24240SOL    HW274162   3.806   1.601   2.349 -0.2695  0.3974  1.2320
24241SOL     OW74163   2.471   3.455   1.298  0.1897 -0.2491 -0.2923
24241SOL    HW174164   2.507   3.509   1.228 -0.5811 -0.0118 -0.5166
24241SOL    HW274165   2.403   3.403   1.255  0.0106 -0.4218  0.1919
24242SOL     OW74166   6.843   1.274   3.913  0.1893  0.3133 -0.2389
24242SOL    HW174167   6.784   1.325   3.859  1.5820 -0.5116 -2.7157
24242SOL    HW274168   6.903   1.338   3.951  0.5606  0.7618 -1.5279
24243SOL     OW74169   6.474   7.805   2.156  0.2395  0.5343 -0.4207
24243SOL    HW174170   6.519   7.881   2.121 -0.0428  0.9025 -0.0001
24243SOL    HW274171   6.542   7.754   2.200  0.8547 -0.5894 -2.5172
24244SOL     OW74172   7.718   1.127   5.099  0.2367 -0.2068  0.4992
24244SOL    HW174173   7.641   1.088   5.141  0.0136  1.3314  1.5886
24244SOL    HW274174   7.784   1.057   5.100 -0.5492 -0.9584  1.2416
24245SOL     OW74175   5.509   3.211  11.662 -0.2198 -0.6725  0.0663
24245SOL    HW174176   5.525   3.292  11.710  1.0680  1.2034 -3.2084
24245SOL    HW274177   5.424   3.225  11.619  1.2600  0.2817 -2.7636
24246SOL     OW74178   6.825   0.001   0.842  0.8799  0.3414 -0.3303
24246SOL    HW174179   6.831   0.069   0.775 -1.5037 -0.1286 -1.1242
24246SOL    HW274180   6.739  -0.039   0.828  0.1063  0.4244  3.2102
24247SOL     OW74181   2.407   1.914   6.416 -0.4201 -0.2731 -0.1727
24247SOL    HW174182   2.360   1.910   6.332 -0.8364 -0.3469  0.0598
24247SOL    HW274183   2.496   1.887   6.395 -0.5050 -0.2286 -0.6044
24248SOL     OW74184   3.726   7.177   3.953  0.3689  0.8167 -0.0082
24248SOL    HW174185   3.794   7.135   4.006 -0.3961  0.1311  0.4606
24248SOL    HW274186   3.752   7.161   3.863  0.0425 -0.8195  0.1511
24249SOL     OW74187   4.071   6.895   5.303 -0.6597  0.4270 -0.8422
24249SOL    HW174188   4.098   6.893   5.212 -1.1236 -0.0256 -0.9771
24249SOL    HW274189   4.076   6.803   5.331 -1.0153  0.4899 -0.5650
24250SOL     OW74190   5.542   7.819   0.973  0.0339  0.1860 -0.0257
24250SOL    HW174191   5.504   7.803   1.059  2.0934 -2.5538  0.5180
24250SOL    HW274192   5.621   7.870   0.990 -1.4100  2.8581 -0.7854
24251SOL     OW74193   5.178   6.085   6.521  0.1782  0.3233  0.5286
24251SOL    HW174194   5.103   6.110   6.574  1.9347  1.4501  2.6498
24251SOL    HW274195   5.207   6.166   6.480  1.3886  0.3322  1.3446
24252SOL     OW74196   5.615   3.122   2.378 -0.2311 -0.3909 -0.1548
24252SOL    HW174197   5.709   3.131   2.365  0.0677 -3.1589 -0.4609
24252SOL    HW274198   5.575   3.158   2.299  0.6053 -0.1451 -0.4672
24253SOL     OW74199   3.114   0.290   8.188 -0.5269  0.3600  0.0021
24253SOL    HW174200   3.124   0.214   8.130 -1.2933 -0.3225  0.7366
24253SOL    HW274201   3.031   0.330   8.162 -1.8527 -1.0340  1.7692
24254SOL     OW74202   2.278   2.898   5.053  0.6639  0.1280 -0.4405
24254SOL    HW174203   2.331   2.908   4.974  1.9963 -1.0135  0.2589
24254SOL    HW274204   2.339   2.912   5.125 -0.6351  1.6624  0.4202
24255SOL     OW74205   4.803   0.241  10.211 -0.5571  0.6672  0.0143
24255SOL    HW174206   4.712   0.258  10.186 -0.5430 -2.0983 -2.4405
24255SOL    HW274207   4.797   0.186  10.288 -0.8722  1.7662  0.8011
24256SOL     OW74208   3.548   1.243   6.063 -0.1582  0.9976  0.0825
24256SOL    HW174209   3.643   1.255   6.063  0.6390 -3.5241  1.3887
24256SOL    HW274210   3.523   1.255   6.155  0.4154 -3.6689  1.0978
24257SOL     OW74211   3.253   4.196   4.802  0.2457  0.5866 -0.6374
24257SOL    HW174212   3.216   4.284   4.804 -1.1243  0.0277  1.1022
24257SOL    HW274213   3.184   4.141   4.765  0.1605 -0.0970  0.4663
24258SOL     OW74214   6.587   1.807   6.969  0.5593  0.1422 -0.0142
24258SOL    HW174215   6.578   1.877   7.033 -2.7081 -1.2247  1.1997
24258SOL    HW274216   6.623   1.734   7.019  0.1284 -0.2584 -0.2870
24259SOL     OW74217   0.108   7.165   4.746 -0.0858  0.0955  0.1251
24259SOL    HW174218   0.040   7.163   4.678 -2.1019 -1.0800  2.0178
24259SOL    HW274219   0.154   7.248   4.732 -2.2251  1.1840 -1.0055
24260SOL     OW74220   4.699   0.232   7.772  0.0147  0.3031 -0.1538
24260SOL    HW174221   4.625   0.226   7.833  0.9870  0.5316  1.1101
24260SOL    HW274222   4.746   0.311   7.799  1.1462 -0.2601 -0.4084
24261SOL     OW74223   5.381   0.363   3.586 -0.6545 -0.5140  0.2235
24261SOL    HW174224   5.451   0.425   3.564 -0.3090 -0.2559  1.9221
24261SOL    HW274225   5.304   0.397   3.540 -0.2390  0.6247  0.3325
24262SOL     OW74226   6.104   6.327   0.774 -0.0108  0.4043  0.2793
24262SOL    HW174227   6.126   6.394   0.839  0.1376  0.2224  0.4179
24262SOL    HW274228   6.146   6.357   0.693  0.6359  0.1276  0.5088
24263SOL     OW74229   6.938   5.971   2.754 -0.0676 -0.0869  0.3982
24263SOL    HW174230   7.008   5.916   2.718 -0.8376 -0.3446 -0.7893
24263SOL    HW274231   6.863   5.955   2.696 -0.1629  2.6447 -0.3700
24264SOL     OW74232   5.140   0.724   1.216 -0.0005  0.3068 -0.2127
24264SOL    HW174233   5.114   0.649   1.162  1.1374 -0.7892  0.6910
24264SOL    HW274234   5.195   0.777   1.158 -1.1905  0.7142 -1.0010
24265SOL     OW74235   6.435   4.600   2.126  0.0231 -0.1623  0.1897
24265SOL    HW174236   6.413   4.645   2.208 -2.1914  0.4628 -0.6609
24265SOL    HW274237   6.458   4.511   2.152 -2.2482 -0.4594  1.4211
24266SOL     OW74238   7.657   2.934   1.084  0.0183  0.1417  0.0859
24266SOL    HW174239   7.639   3.000   1.017 -0.7825 -1.6661 -1.5491
24266SOL    HW274240   7.573   2.918   1.126  0.3678  0.6990  1.0341
24267SOL     OW74241   2.960   3.444   4.748  0.0626 -0.1902  0.1485
24267SOL    HW174242   3.051   3.473   4.754 -0.1848  0.5933  0.2280
24267SOL    HW274243   2.928   3.444   4.838 -0.3011  0.5112  0.0300
24268SOL     OW74244   3.871   0.724  10.165 -0.1062  0.3430  0.0598
24268SOL    HW174245   3.851   0.808  10.125 -0.2946  1.0090  1.4814
24268SOL    HW274246   3.922   0.746  10.243 -0.8664 -0.7847  0.9193
24269SOL     OW74247   7.254   0.411   7.776  0.7178  0.4112 -0.0288
24269SOL    HW174248   7.227   0.501   7.795 -0.6947  0.3082 -1.3420
24269SOL    HW274249   7.303   0.418   7.694  0.2966 -0.0719 -0.3178
24270SOL     OW74250   6.848   7.509   9.488 -0.0522 -0.8026  0.2191
24270SOL    HW174251   6.878   7.587   9.442  0.2375  0.0369  1.7494
24270SOL    HW274252   6.859   7.438   9.425 -1.5537  0.5404 -1.7052
24271SOL     OW74253   2.370   2.492  11.872  0.6280 -0.2232  0.7718
24271SOL    HW174254   2.404   2.488  11.961 -2.2958 -0.5873  2.0090
24271SOL    HW274255   2.329   2.406  11.859 -1.5833  0.8197  0.3094
24272SOL     OW74256   2.530   2.622   3.886  0.1550 -0.2389 -0.2257
24272SOL    HW174257   2.615   2.652   3.852  0.4593 -2.1234 -1.2824
24272SOL    HW274258   2.476   2.701   3.888  1.5978  0.8094 -0.5871
24273SOL     OW74259   0.398   3.611   5.720 -0.8473  0.2107  0.0328
24273SOL    HW174260   0.371   3.662   5.644 -1.8964 -1.3329 -0.6738
24273SOL    HW274261   0.478   3.567   5.693  0.3966  1.8349  0.8424
24274SOL     OW74262   6.045   4.029   2.539  0.1683  0.3229 -0.0748
24274SOL    HW174263   5.993   4.110   2.537 -0.4411 -0.0055  1.1090
24274SOL    HW274264   6.033   3.995   2.628 -1.6764 -2.3877 -1.2109
24275SOL     OW74265   3.689   6.451   9.377  0.4776 -0.1173  0.6459
24275SOL    HW174266   3.654   6.404   9.452 -1.4573  2.4706  1.4937
24275SOL    HW274267   3.784   6.447   9.388  0.2925 -1.5720  2.0223
24276SOL     OW74268   3.135   5.674   1.499 -0.3652 -0.0407  0.0207
24276SOL    HW174269   3.175   5.596   1.539  0.7364  0.8200  0.6581
24276SOL    HW274270   3.081   5.712   1.568  0.6629  0.8293  0.3832
24277SOL     OW74271   5.835   4.695   1.989  0.3024 -0.1825  0.0031
24277SOL    HW174272   5.779   4.686   1.912  1.6394  0.7031 -1.1204
24277SOL    HW274273   5.906   4.752   1.960  0.7751  0.2646  1.9476
24278SOL     OW74274   4.400   4.957   1.144 -0.1506 -0.4198  0.1399
24278SOL    HW174275   4.492   4.975   1.123  0.0664 -3.3249 -1.9546
24278SOL    HW274276   4.402   4.917   1.231  0.5655 -0.4632  0.1097
24279SOL     OW74277   6.880   6.811   3.761 -0.2990 -0.1544  0.1767
24279SOL    HW174278   6.821   6.740   3.737 -0.1574 -0.6320  1.1795
24279SOL    HW274279   6.837   6.853   3.836  0.2470 -0.0020  0.4102
24280SOL     OW74280   2.807   6.313  11.973 -0.1370  0.2407 -0.0056
24280SOL    HW174281   2.750   6.389  11.962  0.9000  0.9638 -0.5376
24280SOL    HW274282   2.895   6.349  11.982  0.1378 -0.7919  2.0509
24281SOL     OW74283   2.370   6.839  10.423  0.3757  0.2721 -0.2439
24281SOL    HW174284   2.412   6.802  10.346 -1.3612 -0.3545 -0.9378
24281SOL    HW274285   2.412   6.795  10.497  1.9035  0.7185 -0.8138
24282SOL     OW74286   2.284   0.958   1.985  0.4929  0.8097  0.2166
24282SOL    HW174287   2.332   1.037   2.012 -0.6993  1.7310 -0.2981
24282SOL    HW274288   2.283   0.962   1.889  0.7905 -0.0704  0.1677
24283SOL     OW74289   2.933   2.599   1.019 -0.2736 -0.0556 -0.5955
24283SOL    HW174290   2.926   2.636   1.108  1.7241 -0.9003 -0.0404
24283SOL    HW274291   2.854   2.630   0.975 -1.9357 -0.5320  1.8117
24284SOL     OW74292   2.263   2.779   2.324  0.5245 -0.5815  0.0580
24284SOL    HW174293   2.200   2.711   2.299  1.7841 -2.3284  1.3844
24284SOL    HW274294   2.268   2.836   2.248 -0.6481 -1.9218 -1.0802
24285SOL     OW74295   1.614   0.571  12.014  0.3939 -0.1011  0.3049
24285SOL    HW174296   1.700   0.534  11.996 -0.1006 -1.0014 -0.3071
24285SOL    HW274297   1.595   0.545  12.104  0.9607  0.5313  0.6184
24286SOL     OW74298   6.256   6.492   6.086  0.0632 -0.1455 -0.0343
24286SOL    HW174299   6.322   6.552   6.120 -0.3870  0.4248 -0.1454
24286SOL    HW274300   6.175   6.544   6.084 -0.6027 -1.1017  0.9897
24287SOL     OW74301   2.588   2.342   7.480  0.5984  0.1416 -0.2155
24287SOL    HW174302   2.681   2.326   7.492  0.5136  0.7746  1.5995
24287SOL    HW274303   2.583   2.430   7.443  0.7053  1.4509  2.6156
24288SOL     OW74304   0.877   1.804   0.057 -0.0001 -0.4511  0.0186
24288SOL    HW174305   0.804   1.745   0.078  0.6344 -1.8479 -1.4428
24288SOL    HW274306   0.846   1.854  -0.018  0.0776 -0.1172  0.2088
24289SOL     OW74307   6.354   2.179  10.786  0.2691  0.0898  0.5321
24289SOL    HW174308   6.287   2.121  10.824 -1.6475  1.3566 -0.7619
24289SOL    HW274309   6.332   2.266  10.820  0.3451  0.7565 -1.0843
24290SOL     OW74310   1.602   5.674   0.376 -0.4039 -0.0513  0.3761
24290SOL    HW174311   1.565   5.660   0.463  1.5219 -1.5984  1.0119
24290SOL    HW274312   1.575   5.597   0.326  0.5574 -0.4180  0.3894
24291SOL     OW74313   6.366   1.221   3.058 -0.1762  0.4900  0.1254
24291SOL    HW174314   6.339   1.232   3.149 -0.9612 -0.4923  0.0185
24291SOL    HW274315   6.291   1.248   3.006 -0.1625 -0.0904 -0.2102
24292SOL     OW74316   5.944   2.915   7.571  0.3641  0.3073 -0.2003
24292SOL    HW174317   5.907   2.910   7.483  0.8290  0.4460 -0.4104
24292SOL    HW274318   6.025   2.965   7.559  1.8374 -1.9033 -0.1735
24293SOL     OW74319   5.846   5.578   3.324 -0.0961 -0.0576 -0.1800
24293SOL    HW174320   5.865   5.490   3.291  0.9079  0.3022 -0.6182
24293SOL    HW274321   5.890   5.636   3.262 -0.9174  0.7645 -0.0031
24294SOL     OW74322   4.625   6.564   1.648 -0.0313 -0.3287  0.5469
24294SOL    HW174323   4.545   6.599   1.686  0.2225  0.2046  0.6137
24294SOL    HW274324   4.608   6.471   1.634 -0.9815 -0.0432 -0.2753
24295SOL     OW74325   4.488   3.261   9.742  0.2455 -0.6290  0.2615
24295SOL    HW174326   4.466   3.222   9.826 -0.1090  0.0925  0.5168
24295SOL    HW274327   4.403   3.274   9.699  0.2482  0.8681  0.6535
24296SOL     OW74328   3.398   5.837   9.785 -0.2062 -0.0618  0.0597
24296SOL    HW174329   3.306   5.842   9.811  0.4923  1.9535  2.5266
24296SOL    HW274330   3.441   5.791   9.857  0.7654 -0.9572 -1.0408
24297SOL     OW74331   6.756   2.477   1.707 -0.0051  0.2562 -0.4270
24297SOL    HW174332   6.788   2.425   1.781  1.1849  0.5540 -0.7156
24297SOL    HW274333   6.664   2.452   1.698 -0.5222  1.0860  1.9016
24298SOL     OW74334   3.135   7.239   5.764 -0.0871 -0.2118  0.0730
24298SOL    HW174335   3.193   7.180   5.716  0.9358  1.4401 -0.8189
24298SOL    HW274336   3.107   7.303   5.698 -1.0033  0.4156  1.0392
24299SOL     OW74337   1.868   3.262   1.204  0.4622 -0.4682 -0.8256
24299SOL    HW174338   1.942   3.244   1.261 -0.4382  0.5271  0.7095
24299SOL    HW274339   1.829   3.176   1.187 -0.4442 -0.6633  1.7732
24300SOL     OW74340   2.046   0.833   2.861  0.5564 -0.1858  0.9536
24300SOL    HW174341   2.089   0.749   2.848  1.2747  0.4104 -0.8550
24300SOL    HW274342   1.958   0.822   2.824  0.1766 -0.5100  1.9212
24301SOL     OW74343   7.834   3.110   2.820 -0.3944 -0.1568  0.2173
24301SOL    HW174344   7.810   3.124   2.728 -1.6724  1.5890  0.7553
24301SOL    HW274345   7.923   3.145   2.826  0.1599 -1.3537 -0.5696
24302SOL     OW74346   4.142   5.468   6.801 -0.3040 -0.0500  0.0697
24302SOL    HW174347   4.196   5.512   6.866  0.8234  0.3479 -1.0900
24302SOL    HW274348   4.130   5.534   6.732 -0.4052 -0.8656 -0.7033
24303SOL     OW74349   1.440   5.494   5.666  0.2943  0.0068 -0.1528
24303SOL    HW174350   1.384   5.528   5.597 -1.3860 -0.5210  0.8947
24303SOL    HW274351   1.492   5.569   5.694 -0.5414  0.7481 -0.5412
24304SOL     OW74352   1.601   3.570   0.006 -0.3461  0.1051  0.6734
24304SOL    HW174353   1.519   3.606  -0.027 -1.2692 -2.0220  0.5025
24304SOL    HW274354   1.654   3.554  -0.072  1.4155  3.8534  0.8827
24305SOL     OW74355   6.124   5.718   3.455  0.0722 -0.1595 -0.2531
24305SOL    HW174356   6.043   5.753   3.492 -0.7088  1.0399 -2.8374
24305SOL    HW274357   6.114   5.623   3.460 -0.4090 -0.0489  1.5841
24306SOL     OW74358   6.186   0.156   4.663 -0.4497 -0.1853 -0.1625
24306SOL    HW174359   6.225   0.109   4.737 -0.4028 -1.4427 -0.9482
24306SOL    HW274360   6.239   0.235   4.654  1.6070 -1.5389 -0.7918
24307SOL     OW74361   2.500   3.791   1.015 -0.0999 -0.1360  0.5319
24307SOL    HW174362   2.542   3.722   1.065  1.2654  0.7152  0.6017
24307SOL    HW274363   2.555   3.868   1.030 -0.1762  0.3623 -1.5266
24308SOL     OW74364   5.038   2.736  10.189 -0.3973 -0.3828  0.3947
24308SOL    HW174365   5.043   2.654  10.239 -0.1251 -0.8870 -0.4277
24308SOL    HW274366   5.111   2.788  10.221 -0.5246 -0.4939  0.8744
24309SOL     OW74367   5.227   1.239   7.965 -0.4355 -0.0067 -0.1114
24309SOL    HW174368   5.196   1.198   8.046 -0.5466 -0.0414 -0.1716
24309SOL    HW274369   5.187   1.188   7.895  0.0369 -0.2670 -0.1961
24310SOL     OW74370   6.395   1.523   5.952  0.0606  0.4149 -0.0498
24310SOL    HW174371   6.461   1.575   5.999 -0.4437 -0.8325  2.1509
24310SOL    HW274372   6.311   1.561   5.979 -0.2766 -0.9092  0.8398
24311SOL     OW74373   7.790   4.275   5.971  0.4170  0.3782 -0.2416
24311SOL    HW174374   7.881   4.303   5.970  0.6395 -0.3301 -0.8023
24311SOL    HW274375   7.749   4.324   5.900  0.4555  0.3792 -0.2631
24312SOL     OW74376   2.982   6.078   4.363  0.1230 -0.0239 -0.3440
24312SOL    HW174377   3.026   6.140   4.421 -0.3422 -0.5141  0.5678
24312SOL    HW274378   3.044   6.061   4.293  1.2032 -0.3636  0.6735
24313SOL     OW74379   3.679   1.410  11.323 -0.1780  0.3028 -0.5010
24313SOL    HW174380   3.678   1.324  11.281  0.7423 -0.8259  1.6511
24313SOL    HW274381   3.759   1.451  11.290  1.4087 -1.2182  1.2553
24314SOL     OW74382   3.501   0.911   7.619 -0.6151  0.0805 -0.0221
24314SOL    HW174383   3.565   0.914   7.691 -0.4442 -1.4532 -0.0926
24314SOL    HW274384   3.434   0.850   7.648 -1.2711  0.5082 -0.6045
24315SOL     OW74385   3.139   2.114   3.420  0.1462 -0.0923  0.1526
24315SOL    HW174386   3.047   2.104   3.395 -0.2378 -1.4995  1.9422
24315SOL    HW274387   3.137   2.174   3.494  0.7460  0.2426 -0.0920
24316SOL     OW74388   3.401   6.643   6.144  0.6174 -1.0066  0.6683
24316SOL    HW174389   3.442   6.724   6.174  0.3840 -0.9200  0.7600
24316SOL    HW274390   3.427   6.577   6.209  0.7465 -0.9893  0.6338
24317SOL     OW74391   7.574   5.331   9.161  0.2801 -0.0741  0.5002
24317SOL    HW174392   7.619   5.333   9.245  0.5970 -0.7595  0.3483
24317SOL    HW274393   7.628   5.276   9.105 -0.2947 -0.2028  0.0568
24318SOL     OW74394   7.334   5.400   9.391  0.1841  0.5245 -0.3521
24318SOL    HW174395   7.309   5.470   9.332  0.4563 -1.9983 -3.7293
24318SOL    HW274396   7.430   5.402   9.392  0.2235 -0.3813 -1.2782
24319SOL     OW74397   7.881   7.250   1.322  0.2364 -0.0978 -0.0105
24319SOL    HW174398   7.847   7.224   1.236  0.9307 -1.6463  0.1524
24319SOL    HW274399   7.848   7.339   1.334 -2.0813 -0.7832 -0.7203
24320SOL     OW74400   5.156   2.855   9.177 -0.1526  0.9836  0.4085
24320SOL    HW174401   5.185   2.799   9.105  0.1925  1.0276  0.5105
24320SOL    HW274402   5.066   2.828   9.193 -0.7623  2.0216 -1.0499
24321SOL     OW74403   7.393   2.008   0.561  0.0580  0.4770 -0.3163
24321SOL    HW174404   7.437   1.981   0.642 -2.5499 -1.1909  0.6583
24321SOL    HW274405   7.354   2.092   0.581 -1.2633 -0.3015  0.4957
24322SOL     OW74406   7.211   4.624  12.153  0.2975  0.2172 -0.1460
24322SOL    HW174407   7.223   4.541  12.107  0.5149 -0.1857  0.6128
24322SOL    HW274408   7.144   4.669  12.103 -1.9859 -1.6549  1.0303
24323SOL     OW74409   2.070   6.841  10.396  0.7640  0.5747 -0.2494
24323SOL    HW174410   2.050   6.758  10.439  1.5162  0.7436  0.4618
24323SOL    HW274411   2.157   6.828  10.359  1.5111  1.4873  1.0907
24324SOL     OW74412   4.735   3.215   5.321  0.4235 -0.5504  0.5895
24324SOL    HW174413   4.825   3.213   5.289  0.5377  0.8175  0.7495
24324SOL    HW274414   4.736   3.280   5.392 -0.7517 -0.2535  0.3624
24325SOL     OW74415   6.369   4.621   8.478  0.5540 -0.6659  0.0599
24325SOL    HW174416   6.444   4.563   8.486  0.4310 -0.5424  2.9012
24325SOL    HW274417   6.376   4.681   8.551 -1.0286  0.9396 -1.0135
24326SOL     OW74418   1.552   2.484   3.288 -0.3155  0.3834  0.1368
24326SOL    HW174419   1.608   2.562   3.284 -0.2251  0.3528  0.7610
24326SOL    HW274420   1.527   2.469   3.197 -0.9553  1.5904  0.0941
24327SOL     OW74421   4.862   2.212   9.081 -0.1345 -0.0384 -0.2849
24327SOL    HW174422   4.915   2.219   9.001  1.7572  0.2811  0.9443
24327SOL    HW274423   4.899   2.276   9.140  0.2369 -2.0492  1.7972
24328SOL     OW74424   2.691   3.228   9.172  0.5424  0.2309  0.6194
24328SOL    HW174425   2.786   3.238   9.167  0.4476  0.5982 -1.0813
24328SOL    HW274426   2.656   3.309   9.135 -0.3955 -0.6690 -0.5683
24329SOL     OW74427   0.563   3.118   2.201 -0.1516  0.0488  0.0712
24329SOL    HW174428   0.530   3.118   2.111  1.9417  0.8672 -0.7558
24329SOL    HW274429   0.496   3.165   2.250 -1.8442 -1.3306 -0.8037
24330SOL     OW74430   0.167   2.734   0.261  0.0082  0.8530  0.1689
24330SOL    HW174431   0.176   2.718   0.354 -0.8831 -1.1597 -0.0526
24330SOL    HW274432   0.135   2.652   0.224  1.4228  1.2008 -2.0963
24331SOL     OW74433   2.186   3.468   3.295  0.3225 -0.4042  0.2130
24331SOL    HW174434   2.268   3.493   3.337  0.0005  0.3394  0.4099
24331SOL    HW274435   2.183   3.520   3.215 -0.9109  1.1154  1.2063
24332SOL     OW74436   3.150   1.502  10.393  0.2730 -0.5759  0.4179
24332SOL    HW174437   3.096   1.427  10.418 -0.8474  0.0976  0.0697
24332SOL    HW274438   3.124   1.571  10.453  1.5985 -0.5644  1.0069
24333SOL     OW74439   7.144   5.586   4.924  0.6207 -0.0611  0.0824
24333SOL    HW174440   7.196   5.594   5.004  2.4187 -3.5006 -0.5853
24333SOL    HW274441   7.181   5.652   4.865 -0.3818  2.1587  1.7583
24334SOL     OW74442   3.842   3.740   0.215  0.7864  0.2924 -0.2066
24334SOL    HW174443   3.798   3.780   0.140  1.7245 -0.2215 -1.0540
24334SOL    HW274444   3.839   3.646   0.197 -2.9352 -0.3682  2.5738
24335SOL     OW74445   1.486   7.124   0.857 -0.5688 -0.0673  0.0558
24335SOL    HW174446   1.567   7.156   0.897 -1.5287  1.0144  1.2180
24335SOL    HW274447   1.445   7.071   0.924 -0.5816 -1.0758 -0.7239
24336SOL     OW74448   6.866   1.459  10.558 -0.4388 -0.1645 -0.2441
24336SOL    HW174449   6.904   1.532  10.606  0.4096 -0.2417 -0.7735
24336SOL    HW274450   6.857   1.491  10.468  0.2226 -0.8055 -0.5453
24337SOL     OW74451   6.364   2.797   3.354 -0.5031 -0.3953  0.0209
24337SOL    HW174452   6.396   2.881   3.389 -1.3863  0.2366 -0.6325
24337SOL    HW274453   6.350   2.743   3.432  0.4782 -0.0997  0.4277
24338SOL     OW74454   6.257   0.551   6.825  0.3677 -0.4595 -0.7311
24338SOL    HW174455   6.183   0.600   6.791  0.5874 -0.6477 -1.4995
24338SOL    HW274456   6.334   0.594   6.788  0.8341  1.1347  1.7942
24339SOL     OW74457   5.424   1.846   0.263  0.0262 -0.2619 -0.1480
24339SOL    HW174458   5.352   1.785   0.246  0.7505 -1.9819  2.2738
24339SOL    HW274459   5.463   1.813   0.344  1.4084  2.6395  0.4748
24340SOL     OW74460   7.141   4.637   2.999  0.0076 -0.2125 -0.4077
24340SOL    HW174461   7.115   4.586   3.076  0.5998  0.4286  0.2323
24340SOL    HW274462   7.236   4.624   2.992 -0.0185 -0.1543 -0.9501
24341SOL     OW74463   3.157   1.251  11.048 -0.0959 -0.2148  0.2896
24341SOL    HW174464   3.211   1.220  11.121  0.4130 -0.3760 -0.1511
24341SOL    HW274465   3.220   1.277  10.981 -0.5609 -0.1984 -0.1467
24342SOL     OW74466   3.693   4.590   0.967 -0.3449 -0.1324  0.0486
24342SOL    HW174467   3.647   4.651   1.025  0.4221 -0.1366  0.6829
24342SOL    HW274468   3.625   4.528   0.939 -0.8932  0.3370  0.3076
24343SOL     OW74469   3.605   5.499   6.206  0.2034  0.4188  0.0512
24343SOL    HW174470   3.691   5.541   6.196  0.5460 -0.1813  0.4264
24343SOL    HW274471   3.544   5.562   6.169  0.8952  0.5003 -1.0158
24344SOL     OW74472   5.908   3.123   0.864  0.2527  0.4551  0.0392
24344SOL    HW174473   5.850   3.159   0.798  0.6453  0.1782 -0.4669
24344SOL    HW274474   5.982   3.088   0.815  0.1869 -0.4681  0.5600
24345SOL     OW74475   6.629   0.039   2.027 -0.0953  0.0447  0.3108
24345SOL    HW174476   6.593   0.067   1.943 -0.0943 -0.2257  0.2180
24345SOL    HW274477   6.724   0.035   2.012 -0.1448 -0.6452  0.1234
24346SOL     OW74478   3.596   0.505   8.264 -0.1461 -0.4029  0.1320
24346SOL    HW174479   3.579   0.462   8.347  0.7048 -0.1703  0.4419
24346SOL    HW274480   3.691   0.517   8.263 -0.0702 -0.9586 -1.1476
24347SOL     OW74481   0.578   2.532   8.127  0.5474 -0.1021  0.2517
24347SOL    HW174482   0.522   2.580   8.187 -0.4392 -0.8731 -0.0277
24347SOL    HW274483   0.518   2.494   8.063  1.7137  3.2880 -3.2416
24348SOL     OW74484   7.681   6.104   4.874 -0.3284  0.8280 -0.9021
24348SOL    HW174485   7.735   6.172   4.833 -0.4295  1.4159 -0.0879
24348SOL    HW274486   7.738   6.027   4.879 -0.4257  0.6376 -2.4384
24349SOL     OW74487   3.859   6.708   1.038  0.7709 -0.2505 -0.1545
24349SOL    HW174488   3.780   6.716   1.092 -0.0201  1.8077 -1.4796
24349SOL    HW274489   3.914   6.646   1.085 -1.0896 -0.7645  1.4867
24350SOL     OW74490   3.066   5.683   0.199  0.2795 -0.1461 -0.0205
24350SOL    HW174491   3.056   5.589   0.192 -0.9827 -0.5649  4.3882
24350SOL    HW274492   3.138   5.696   0.261  1.8144  1.9421 -2.0536
24351SOL     OW74493   1.336   1.669   6.140 -0.2758  0.1029 -0.2181
24351SOL    HW174494   1.383   1.666   6.056 -0.4958  1.9727 -0.4614
24351SOL    HW274495   1.391   1.619   6.200 -0.4010 -1.7709 -1.5760
24352SOL     OW74496   1.226   7.269   2.679 -0.5324 -0.3741  0.0591
24352SOL    HW174497   1.264   7.245   2.595  0.2458  1.0182 -0.0170
24352SOL    HW274498   1.275   7.217   2.743 -0.7069 -0.9810 -0.3002
24353SOL     OW74499   4.050   1.903  10.754 -0.2328 -0.6623  0.3749
24353SOL    HW174500   4.021   1.923  10.665 -2.9792 -1.5199  0.9650
24353SOL    HW274501   4.144   1.893  10.748 -0.1010  1.3093 -2.0237
24354SOL     OW74502   1.875   4.454   5.569 -0.3610 -0.1549  0.1461
24354SOL    HW174503   1.955   4.502   5.590  0.1078  1.0346 -3.5330
24354SOL    HW274504   1.906   4.377   5.521 -1.3492  0.6644 -1.9155
24355SOL     OW74505   1.557   3.551   1.993 -0.1739 -0.0012  0.2979
24355SOL    HW174506   1.495   3.583   2.058 -1.4283 -2.0689  0.1733
24355SOL    HW274507   1.614   3.491   2.041  0.8048  0.7228  0.0846
24356SOL     OW74508   6.598   6.033   4.282  0.0441 -0.2097  0.1997
24356SOL    HW174509   6.558   6.012   4.197  1.1670  1.2951 -0.7440
24356SOL    HW274510   6.644   5.953   4.307  0.0143 -0.5597 -0.8125
24357SOL     OW74511   7.211   1.799   2.541 -0.3274  0.7922 -0.2189
24357SOL    HW174512   7.129   1.756   2.564  1.0725 -1.2811  1.1993
24357SOL    HW274513   7.188   1.892   2.534 -2.7633  0.2837  0.2155
24358SOL     OW74514   2.620   6.722   1.472  0.2956  0.3382  0.4340
24358SOL    HW174515   2.714   6.730   1.486  0.1895  0.6374  1.0459
24358SOL    HW274516   2.605   6.763   1.387  0.7885 -0.2397  0.0598
24359SOL     OW74517   4.300   3.882   5.573 -0.4466  0.1110 -0.3400
24359SOL    HW174518   4.314   3.795   5.535  1.3388 -0.0025  0.5219
24359SOL    HW274519   4.218   3.873   5.622 -0.0722 -1.2138  0.0842
24360SOL     OW74520   4.919   4.981  12.414  0.3413 -0.5864  0.4751
24360SOL    HW174521   4.900   5.018  12.328 -0.0020  1.1244  1.2562
24360SOL    HW274522   4.840   4.932  12.437  0.2352 -0.6220  0.0399
24361SOL     OW74523   6.387   1.348  11.141 -0.0408 -0.5324  0.5366
24361SOL    HW174524   6.362   1.292  11.067  2.2699  0.1183 -0.8374
24361SOL    HW274525   6.365   1.296  11.218 -2.0541 -1.4567 -0.5582
24362SOL     OW74526   6.262   6.982  10.560 -0.2085 -0.4577 -0.1522
24362SOL    HW174527   6.175   6.946  10.541 -0.3459 -0.9801  1.3190
24362SOL    HW274528   6.286   6.943  10.644  0.5834  1.2060  0.4513
24363SOL     OW74529   5.013   7.820   8.948 -0.3079  0.3300  0.1163
24363SOL    HW174530   4.930   7.865   8.963 -0.7293 -0.1678 -0.6450
24363SOL    HW274531   4.999   7.769   8.868  0.7917  0.3794 -0.1305
24364SOL     OW74532   4.431   6.612   9.898  0.3833 -1.0022 -0.0872
24364SOL    HW174533   4.354   6.656   9.936 -0.4220 -1.3871 -1.2309
24364SOL    HW274534   4.488   6.596   9.973 -0.4326 -0.2790  0.7220
24365SOL     OW74535   3.496   1.497   5.442  0.4731 -0.6606 -0.3596
24365SOL    HW174536   3.580   1.544   5.441  0.1670 -0.0838  0.3012
24365SOL    HW274537   3.514   1.417   5.491  0.2236  0.3026  1.3823
24366SOL     OW74538   1.247   4.686   1.113  0.2211 -0.3439 -0.2446
24366SOL    HW174539   1.177   4.680   1.177  1.4928  1.9207  1.4706
24366SOL    HW274540   1.327   4.687   1.164  1.5538 -2.0612 -2.1116
24367SOL     OW74541   7.490   6.499   2.965 -0.1260 -0.1587  0.9473
24367SOL    HW174542   7.463   6.529   3.051  1.8413  1.1394  1.1686
24367SOL    HW274543   7.581   6.471   2.976 -0.7310 -2.8621 -0.0781
24368SOL     OW74544   0.585   2.876   5.307 -0.0688 -0.3219 -0.2825
24368SOL    HW174545   0.570   2.786   5.338 -0.4032 -0.1354  0.1087
24368SOL    HW274546   0.637   2.917   5.377 -0.8772  0.1200  0.0728
24369SOL     OW74547   1.889   0.671  12.151  0.1343 -0.4349 -0.2474
24369SOL    HW174548   1.953   0.668  12.222 -1.4572 -0.2745  1.2525
24369SOL    HW274549   1.810   0.709  12.191 -1.5974 -2.5720 -1.4392
24370SOL     OW74550   0.567   3.267   9.363 -0.1048 -0.0749 -0.6082
24370SOL    HW174551   0.561   3.303   9.451 -1.3222 -2.3918  0.3505
24370SOL    HW274552   0.477   3.255   9.335  0.2457 -0.9574 -1.4414
24371SOL     OW74553   0.137   7.172   0.094  0.1997 -0.2365 -0.0121
24371SOL    HW174554   0.197   7.098   0.095  0.8127  0.2216 -1.2762
24371SOL    HW274555   0.187   7.244   0.130 -0.2007 -0.2722  0.6408
24372SOL     OW74556   0.596   1.571  12.111  0.2123  0.5936 -0.0008
24372SOL    HW174557   0.591   1.618  12.028 -2.5419  0.8729  0.2493
24372SOL    HW274558   0.532   1.614  12.167  0.8085 -0.6705  1.7196
24373SOL     OW74559   5.189   2.095   9.074  0.0567 -0.3024  0.5946
24373SOL    HW174560   5.226   2.159   9.134  0.3758  0.8460 -0.7777
24373SOL    HW274561   5.149   2.029   9.131  0.0951  0.8789  2.0445
24374SOL     OW74562   5.095   4.332   6.997 -0.1266  0.2391 -0.0506
24374SOL    HW174563   5.159   4.278   7.043  0.5767 -1.3419 -2.6669
24374SOL    HW274564   5.011   4.291   7.017  0.1553 -0.3586 -0.0728
24375SOL     OW74565   1.774   7.322   0.753 -0.2457 -0.2123  0.2554
24375SOL    HW174566   1.798   7.263   0.682  0.0584  2.1154 -1.7151
24375SOL    HW274567   1.855   7.369   0.773 -0.6798  0.1767  1.1407
24376SOL     OW74568   1.280   1.765   3.678 -1.0009  0.5678 -0.9395
24376SOL    HW174569   1.186   1.782   3.675 -1.1348  0.2690  0.5545
24376SOL    HW274570   1.291   1.705   3.752  0.4820  1.4627 -0.3891
24377SOL     OW74571   5.978   3.822   1.468 -0.0080 -0.5602  0.1329
24377SOL    HW174572   5.980   3.830   1.563  1.1987 -0.0806  0.0852
24377SOL    HW274573   5.939   3.904   1.437 -3.1902 -1.8749  0.2821
24378SOL     OW74574   2.155   6.948  10.638 -0.4946 -0.3403  0.4577
24378SOL    HW174575   2.249   6.966  10.634 -0.7527  1.0452  0.0795
24378SOL    HW274576   2.128   6.941  10.546 -0.7582 -0.7997  0.5670
24379SOL     OW74577   5.083   4.268   4.959  0.0434 -0.0798  0.2213
24379SOL    HW174578   5.099   4.354   4.921 -0.1978  0.0330  0.3723
24379SOL    HW274579   5.022   4.225   4.899 -0.2712  0.0667  0.4278
24380SOL     OW74580   3.899   1.154   1.047 -0.1353  0.2584  0.0566
24380SOL    HW174581   3.974   1.113   1.089 -0.6425  0.8532  1.6279
24380SOL    HW274582   3.869   1.090   0.983  1.1815 -0.3346  0.0120
24381SOL     OW74583   3.704   0.242   3.716  0.0949  0.0219  0.5358
24381SOL    HW174584   3.798   0.234   3.702 -0.1875 -1.0131 -1.0452
24381SOL    HW274585   3.693   0.326   3.760  1.6731  0.6879 -0.2718
24382SOL     OW74586   7.284   3.762   2.473 -0.6041 -0.2142  0.1703
24382SOL    HW174587   7.376   3.741   2.461 -0.6738 -0.8236  0.6456
24382SOL    HW274588   7.256   3.799   2.389  0.2688  0.7337  0.2808
24383SOL     OW74589   3.620   3.750   1.917 -0.0409  0.0551 -0.3898
24383SOL    HW174590   3.582   3.836   1.934  0.5021  0.7071 -2.2290
24383SOL    HW274591   3.607   3.701   1.998 -3.7833  0.5778 -0.5061
24384SOL     OW74592   1.612   7.660   0.917 -0.4308  0.2548 -0.3675
24384SOL    HW174593   1.607   7.572   0.880  0.3738  0.6995 -1.5655
24384SOL    HW274594   1.698   7.663   0.960 -0.4050  0.5034 -0.4385
24385SOL     OW74595   2.317   5.348   8.868  0.7125  0.2504  0.1060
24385SOL    HW174596   2.227   5.331   8.838  1.0688 -1.5613 -0.0341
24385SOL    HW274597   2.339   5.432   8.828 -0.5840  0.2750 -0.6480
24386SOL     OW74598   2.877   0.831   9.641 -0.3631 -1.3869  0.7399
24386SOL    HW174599   2.936   0.907   9.645 -2.2303  0.0793  3.1090
24386SOL    HW274600   2.864   0.816   9.547 -0.4210  1.6780  0.1488
24387SOL     OW74601   0.335   0.735   0.773 -0.0212  0.0920 -0.2298
24387SOL    HW174602   0.300   0.782   0.849 -1.7294 -1.0144 -0.2794
24387SOL    HW274603   0.424   0.710   0.799  0.1106  1.3545  0.6453
24388SOL     OW74604   7.679   2.184   0.498 -0.0210  0.1156  0.1044
24388SOL    HW174605   7.768   2.150   0.504  0.5357  0.9338 -2.3020
24388SOL    HW274606   7.689   2.274   0.470 -1.6149  0.3823  0.2893
24389SOL     OW74607   5.556   1.296   8.220  0.1939  0.8312  0.5325
24389SOL    HW174608   5.576   1.204   8.235  1.2661  0.6955 -1.4304
24389SOL    HW274609   5.564   1.307   8.125 -0.9048  2.7285  0.6121
24390SOL     OW74610   7.479   0.051   6.525  0.2519  0.4250 -0.1228
24390SOL    HW174611   7.534   0.028   6.599 -0.0033  0.4872  0.0849
24390SOL    HW274612   7.408  -0.013   6.525  0.1710  0.5122 -0.2255
24391SOL     OW74613   4.002   5.979   6.305  0.9890  0.7255 -0.3729
24391SOL    HW174614   3.953   5.963   6.224  1.7077  0.2638 -0.7256
24391SOL    HW274615   3.955   6.051   6.347 -0.9786 -0.7385  0.1028
24392SOL     OW74616   2.117   2.574   3.713 -0.7653  0.3919  0.0873
24392SOL    HW174617   2.127   2.537   3.626 -2.9031  1.9869 -0.9178
24392SOL    HW274618   2.155   2.508   3.772 -1.7755 -2.0194 -1.8075
24393SOL     OW74619   2.020   4.687  12.192  0.0293 -0.0285 -0.3017
24393SOL    HW174620   1.926   4.700  12.189 -0.1034  0.4207  2.6282
24393SOL    HW274621   2.055   4.767  12.231  1.6251 -0.2407 -1.1957
24394SOL     OW74622   7.865   1.785   0.378 -0.0626 -0.1596  0.0607
24394SOL    HW174623   7.814   1.728   0.320 -0.5480  0.2811  0.0463
24394SOL    HW274624   7.801   1.822   0.439  0.2209  0.4445  0.0101
24395SOL     OW74625   4.477   6.229   6.817  0.1179 -0.0950 -0.0158
24395SOL    HW174626   4.433   6.233   6.732  0.5650  2.9754 -0.2200
24395SOL    HW274627   4.461   6.315   6.856  1.7263 -0.6719  2.0894
24396SOL     OW74628   4.284   1.970   0.227  0.4849 -0.7558  0.2698
24396SOL    HW174629   4.321   2.002   0.309 -0.9324 -2.0692  1.4890
24396SOL    HW274630   4.198   2.011   0.221 -0.5255 -2.6556  0.8512
24397SOL     OW74631   1.540   3.898   7.706 -0.5803  0.2471 -0.3443
24397SOL    HW174632   1.618   3.951   7.692 -0.0786 -0.6246 -0.9340
24397SOL    HW274633   1.518   3.910   7.799 -0.1719  1.0562 -0.3478
24398SOL     OW74634   3.315   7.313  12.342  0.0885 -0.4899  0.0458
24398SOL    HW174635   3.277   7.227  12.324 -1.0516  0.0170 -0.0551
24398SOL    HW274636   3.281   7.370  12.273 -0.5304  0.4144  1.0523
24399SOL     OW74637   5.828   4.136  12.340  0.1512  0.0205  0.1017
24399SOL    HW174638   5.814   4.226  12.310  1.8053  0.2695 -0.0188
24399SOL    HW274639   5.846   4.086  12.260 -0.2331 -0.3091  0.2194
24400SOL     OW74640   1.762   5.078   5.246 -0.7690  0.3679 -0.3020
24400SOL    HW174641   1.814   5.010   5.204  0.5261  2.0128 -1.4770
24400SOL    HW274642   1.677   5.073   5.203 -0.7043 -0.4988 -0.3469
24401SOL     OW74643   1.799   0.783   0.880 -0.3538 -0.4821 -0.0387
24401SOL    HW174644   1.868   0.807   0.819  2.1045 -0.9672  2.3642
24401SOL    HW274645   1.836   0.712   0.932 -2.7569 -0.8933  1.2777
24402SOL     OW74646   3.415   0.478   9.349  0.1633 -0.2506 -0.2950
24402SOL    HW174647   3.437   0.396   9.306 -1.9568  0.2031 -2.4005
24402SOL    HW274648   3.499   0.523   9.358  1.1063 -1.8222 -0.8170
24403SOL     OW74649   0.259   1.389   8.055  0.9216 -0.1661  0.1127
24403SOL    HW174650   0.166   1.382   8.033  1.2413 -2.5695 -0.8146
24403SOL    HW274651   0.288   1.469   8.011 -0.7711  0.9348  0.8743
24404SOL     OW74652   2.554   3.148   3.962  0.2479  0.2032 -0.0640
24404SOL    HW174653   2.544   3.239   3.936  2.3551  0.5576  0.1831
24404SOL    HW274654   2.554   3.100   3.879  1.8952  0.7791 -0.4445
24405SOL     OW74655   5.288   7.840  11.113  0.5648  0.0886  0.4105
24405SOL    HW174656   5.357   7.776  11.133  0.8094 -0.0893 -0.9582
24405SOL    HW274657   5.325   7.896  11.045 -0.0183  1.0857  0.8949
24406SOL     OW74658   7.182   4.166  12.207  1.0480  0.8189  0.2990
24406SOL    HW174659   7.251   4.100  12.204 -1.2872 -1.8057 -2.1465
24406SOL    HW274660   7.209   4.233  12.145  2.2969  0.9340  0.9352
24407SOL     OW74661   7.943   4.607   3.732  0.6706  0.2238  0.1150
24407SOL    HW174662   8.034   4.612   3.701  1.8457  0.6195  3.3122
24407SOL    HW274663   7.941   4.661   3.811 -2.5082  0.5743 -0.0565
24408SOL     OW74664   2.567   2.976   2.429  0.2214  0.0582 -0.0167
24408SOL    HW174665   2.531   2.968   2.517  0.7007 -1.7555  0.0609
24408SOL    HW274666   2.512   3.041   2.386 -1.5452 -0.7753  0.8872
24409SOL     OW74667   6.599   7.487   4.660  0.1055 -0.4104  0.1742
24409SOL    HW174668   6.511   7.451   4.648  0.7106 -1.8156 -0.2981
24409SOL    HW274669   6.652   7.442   4.595  0.9920  1.1803 -0.2619
24410SOL     OW74670   2.959   0.043   4.995 -0.0346 -0.3846  0.1282
24410SOL    HW174671   2.902   0.107   5.037  1.2893  1.5209 -0.8173
24410SOL    HW274672   3.047   0.062   5.030  0.5535 -0.9179 -0.9911
24411SOL     OW74673   7.707   4.977   4.258 -0.1149 -0.2952 -0.3308
24411SOL    HW174674   7.624   4.968   4.211  0.4832 -1.5681 -1.2012
24411SOL    HW274675   7.757   5.041   4.207 -0.3238  0.0050 -0.1583
24412SOL     OW74676   6.524   2.684   5.110 -0.3439  0.5113  0.3709
24412SOL    HW174677   6.491   2.597   5.091  0.4022  0.8656 -3.1871
24412SOL    HW274678   6.446   2.735   5.135 -1.0584 -0.6649  0.5973
24413SOL     OW74679   5.315   0.443   9.835 -0.5803  0.6020  0.1740
24413SOL    HW174680   5.410   0.428   9.830 -0.4303  1.0620  1.3752
24413SOL    HW274681   5.293   0.481   9.750  0.0090 -1.0328 -0.7614
24414SOL     OW74682   7.612   2.021   6.412  0.1212 -0.4120  0.4979
24414SOL    HW174683   7.637   2.080   6.483 -0.6876  0.9414 -0.2848
24414SOL    HW274684   7.579   2.079   6.343 -0.9897 -1.8080 -0.2129
24415SOL     OW74685   5.837   3.114   6.262  0.2384 -0.3424 -0.1966
24415SOL    HW174686   5.850   3.209   6.267  0.0625  0.0139 -3.6162
24415SOL    HW274687   5.742   3.102   6.261  0.2575 -0.6173  0.6220
24416SOL     OW74688   0.424   3.878   7.697  0.3865  0.0750  0.5981
24416SOL    HW174689   0.382   3.863   7.782 -0.3562  0.6839  0.3517
24416SOL    HW274690   0.362   3.841   7.633  0.8687 -0.2413  0.3035
24417SOL     OW74691   5.575   1.488   5.455  0.0410 -0.2536  0.5173
24417SOL    HW174692   5.663   1.473   5.421  0.8087 -1.1119  2.7411
24417SOL    HW274693   5.586   1.493   5.550 -2.3425 -0.6254  0.8758
24418SOL     OW74694   3.216   3.056   6.700 -0.0708 -0.1857 -0.1776
24418SOL    HW174695   3.201   2.962   6.708 -0.4701 -0.0858  0.2744
24418SOL    HW274696   3.235   3.069   6.607  0.4078 -0.7690 -0.1728
24419SOL     OW74697   6.687   7.771   9.935 -0.1259 -0.4982  0.2141
24419SOL    HW174698   6.778   7.742   9.930 -0.9847 -3.4447 -0.4303
24419SOL    HW274699   6.673   7.791  10.028  1.0040 -0.5972  0.4193
24420SOL     OW74700   6.903   5.233  11.071  0.3106 -0.5624  0.0505
24420SOL    HW174701   6.953   5.152  11.060  0.2371 -0.6771  0.5353
24420SOL    HW274702   6.851   5.240  10.991  1.0788 -0.4576 -0.4490
24421SOL     OW74703   0.862   1.818   1.260  0.4437 -0.3465 -0.2045
24421SOL    HW174704   0.940   1.780   1.220  1.2282 -0.5119  1.4041
24421SOL    HW274705   0.827   1.748   1.316 -1.3870 -0.5787 -1.5687
24422SOL     OW74706   7.166   4.318   0.448  0.2327 -0.3108 -0.8747
24422SOL    HW174707   7.096   4.328   0.383 -0.5685  0.2272  0.0450
24422SOL    HW274708   7.247   4.319   0.396 -0.4458 -2.0908 -2.0871
24423SOL     OW74709   6.991   6.858   6.811 -0.2485  0.6130 -0.3555
24423SOL    HW174710   6.945   6.792   6.758  1.7581 -1.2236  0.0315
24423SOL    HW274711   7.057   6.894   6.752  2.2361 -1.6981  0.7988
24424SOL     OW74712   6.647   3.070   5.627 -0.1325 -0.4121  0.1234
24424SOL    HW174713   6.703   3.114   5.691 -0.9748 -0.8909  1.2308
24424SOL    HW274714   6.566   3.122   5.627 -0.6084 -1.1287  0.4131
24425SOL     OW74715   6.667   0.630  11.767 -0.0101 -0.1449  0.0574
24425SOL    HW174716   6.622   0.576  11.702 -1.6879 -0.2661  1.2683
24425SOL    HW274717   6.758   0.634  11.736 -0.6020 -0.7904 -1.8876
24426SOL     OW74718   7.673   7.184   0.140  0.5542 -0.0978  0.7223
24426SOL    HW174719   7.695   7.276   0.127  0.9132 -0.1542  0.9491
24426SOL    HW274720   7.754   7.143   0.170  0.3023 -0.4193  0.9664
24427SOL     OW74721   1.703   1.679   9.814  0.2861 -0.2199 -0.0824
24427SOL    HW174722   1.793   1.651   9.833  0.4155 -1.3069 -2.0668
24427SOL    HW274723   1.653   1.654   9.892  1.3533 -1.4149  0.2431
24428SOL     OW74724   3.109   1.162   0.937 -0.2518 -0.7695  0.6435
24428SOL    HW174725   3.068   1.213   1.007 -1.5451 -0.7100 -0.1159
24428SOL    HW274726   3.035   1.127   0.887  0.5742  0.7900 -1.8391
24429SOL     OW74727   7.141   6.646  10.684 -0.3200 -0.6420 -0.1562
24429SOL    HW174728   7.120   6.669  10.593 -4.0234 -0.5650  0.5494
24429SOL    HW274729   7.121   6.726  10.734  0.5497 -1.0412  0.8598
24430SOL     OW74730   0.322   6.363   0.052 -0.3278  0.1277 -0.4272
24430SOL    HW174731   0.376   6.398  -0.018 -0.5184  1.1648 -0.0770
24430SOL    HW274732   0.239   6.411   0.045 -0.3360  0.2829  0.5116
24431SOL     OW74733   5.799   6.462   1.964 -0.1609  0.0320 -0.3286
24431SOL    HW174734   5.845   6.486   1.883  0.6774  0.3640  0.2289
24431SOL    HW274735   5.789   6.367   1.958 -1.1733  0.1803 -1.3551
24432SOL     OW74736   4.364   6.546   0.106  0.0701  0.3342  0.2497
24432SOL    HW174737   4.285   6.530   0.157 -0.0306  1.6843  0.5588
24432SOL    HW274738   4.436   6.522   0.165 -0.0873  0.2534  0.4095
24433SOL     OW74739   6.429   6.036   5.956  0.2752 -0.4462  0.1985
24433SOL    HW174740   6.498   6.102   5.944  0.3133 -0.5556 -0.1969
24433SOL    HW274741   6.366   6.079   6.014 -0.4189  0.5062 -1.2018
24434SOL     OW74742   1.443   0.703   0.127 -0.2149  0.5525 -0.7205
24434SOL    HW174743   1.360   0.716   0.172  0.1968  0.6484  0.0263
24434SOL    HW274744   1.500   0.661   0.192 -0.0942 -0.7930 -1.6610
24435SOL     OW74745   0.373   6.878   6.835 -0.0889  0.2647  0.1444
24435SOL    HW174746   0.311   6.934   6.882  0.8560  0.2587  1.4566
24435SOL    HW274747   0.459   6.905   6.867  0.5643 -0.0728 -1.2662
24436SOL     OW74748   7.104   7.750   8.445 -0.3299  0.2716  0.2139
24436SOL    HW174749   7.177   7.712   8.395  0.3489  0.3385  1.1272
24436SOL    HW274750   7.147   7.803   8.513 -1.2217 -0.2780  1.2252
24437SOL     OW74751   5.814   2.053   0.661  0.0191  0.1969  0.0013
24437SOL    HW174752   5.828   2.011   0.745  0.6953  0.0764 -0.1689
24437SOL    HW274753   5.889   2.027   0.608 -0.8509 -0.4842 -0.9456
24438SOL     OW74754   6.238   7.144   5.931  0.5069 -1.0274  0.1834
24438SOL    HW174755   6.273   7.223   5.888 -1.9931 -1.4125 -2.9261
24438SOL    HW274756   6.199   7.176   6.012 -1.2519  1.1964 -1.4189
24439SOL     OW74757   2.102   3.879   3.607 -0.1579  0.0523  0.2671
24439SOL    HW174758   2.055   3.869   3.524  0.4445 -1.8854  0.0901
24439SOL    HW274759   2.064   3.810   3.663  0.6656  0.1784  0.9858
24440SOL     OW74760   4.780   5.256  11.133 -0.3865  0.1136 -0.9782
24440SOL    HW174761   4.748   5.202  11.205  1.3356  0.3745  0.0408
24440SOL    HW274762   4.754   5.345  11.156 -2.0919 -0.0842 -2.0095
24441SOL     OW74763   6.334   6.728   9.098  0.0435 -0.4009  0.1262
24441SOL    HW174764   6.360   6.787   9.027 -0.8845 -0.0351  0.0789
24441SOL    HW274765   6.415   6.683   9.122  0.5425  0.0870 -0.5868
24442SOL     OW74766   2.649   0.907  12.008  0.0534  0.3772  0.1893
24442SOL    HW174767   2.718   0.952  11.958  1.5113 -0.6371  1.1879
24442SOL    HW274768   2.666   0.931  12.099 -2.6505  2.3238  0.3032
24443SOL     OW74769   6.722   0.118   1.116  0.4397 -0.2963 -0.2502
24443SOL    HW174770   6.661   0.095   1.046  0.5684 -0.6906 -0.2383
24443SOL    HW274771   6.779   0.184   1.078 -0.3157  0.4578 -0.0989
24444SOL     OW74772   7.134   7.481   8.860  0.3668  0.3201 -0.0767
24444SOL    HW174773   7.075   7.470   8.786  2.1766 -2.1064 -1.3425
24444SOL    HW274774   7.079   7.510   8.932 -1.4907  2.7298 -2.3056
24445SOL     OW74775   2.239   1.665   0.918 -0.2553  0.6177 -0.3957
24445SOL    HW174776   2.272   1.754   0.907  0.3954  0.1298 -3.2380
24445SOL    HW274777   2.317   1.611   0.921 -0.6756  0.0281  0.1200
24446SOL     OW74778   1.230   7.390  11.510  0.4020  0.1492 -0.5457
24446SOL    HW174779   1.243   7.355  11.598  1.0325 -0.0990 -0.7265
24446SOL    HW274780   1.208   7.313  11.457  2.2156 -0.0875 -1.0321
24447SOL     OW74781   2.729   0.566   8.996  0.4757  0.1139 -0.0786
24447SOL    HW174782   2.799   0.610   8.947  0.2421  1.3872  0.6683
24447SOL    HW274783   2.740   0.597   9.086 -0.1984 -0.7661  0.3152
24448SOL     OW74784   0.106   5.830   7.009 -0.1608  0.5736 -0.1564
24448SOL    HW174785   0.030   5.788   7.051  0.5331  1.4039  2.0841
24448SOL    HW274786   0.180   5.805   7.064  1.3747 -0.6550 -2.5913
24449SOL     OW74787   5.702   6.634   2.345  0.5583 -1.0799 -0.0279
24449SOL    HW174788   5.773   6.571   2.353  0.3005 -1.3833 -0.0749
24449SOL    HW274789   5.694   6.673   2.431 -0.3231 -2.2595  0.4575
24450SOL     OW74790   2.826   2.965  10.293  0.9523 -0.9060 -0.0940
24450SOL    HW174791   2.801   3.022  10.366  0.6247 -1.2459  0.0637
24450SOL    HW274792   2.906   3.004  10.259  0.4644 -0.0671 -0.3134
24451SOL     OW74793   2.305   2.069   3.974  0.2146 -0.3736  0.2760
24451SOL    HW174794   2.399   2.054   3.969  0.4304  0.8896  0.1931
24451SOL    HW274795   2.296   2.155   4.016 -0.8265  0.2048 -1.0325
24452SOL     OW74796   7.213   2.797   8.894  0.3273  0.4581  0.3040
24452SOL    HW174797   7.118   2.780   8.895  0.5010 -0.7651 -0.6638
24452SOL    HW274798   7.235   2.800   8.801  1.5047 -0.9951  0.5100
24453SOL     OW74799   1.153   4.865  12.073 -1.0399 -0.6244 -0.1112
24453SOL    HW174800   1.225   4.904  12.122 -1.3922  1.0657 -0.8565
24453SOL    HW274801   1.194   4.796  12.020  0.2269  0.8725 -1.1761
24454SOL     OW74802   6.355   7.509  10.466  0.3906 -0.6709  0.0608
24454SOL    HW174803   6.428   7.449  10.483  1.3062  0.0846 -1.0069
24454SOL    HW274804   6.389   7.568  10.398 -1.3966 -0.5975 -0.8036
24455SOL     OW74805   5.701   3.363   2.849  0.4814 -0.2725  0.2160
24455SOL    HW174806   5.737   3.449   2.872  0.3924 -0.5028  1.2362
24455SOL    HW274807   5.750   3.337   2.771  0.7091  0.5702  0.0648
24456SOL     OW74808   3.137   6.830   7.732 -0.2067  0.2300  0.9483
24456SOL    HW174809   3.146   6.857   7.823 -1.9587 -1.6074  1.7387
24456SOL    HW274810   3.065   6.884   7.698 -0.5433 -0.0985  1.1236
24457SOL     OW74811   1.379   1.030   8.656 -0.0478 -0.6315 -0.0612
24457SOL    HW174812   1.363   0.945   8.616  0.6315 -0.3879 -0.8931
24457SOL    HW274813   1.352   1.020   8.747 -1.0112 -1.4023 -0.4191
24458SOL     OW74814   2.438   1.079  11.735  0.2282 -0.0235  0.7584
24458SOL    HW174815   2.532   1.071  11.750  0.8531  0.2321 -2.3531
24458SOL    HW274816   2.430   1.120  11.649 -2.7902  2.4168  1.9817
24459SOL     OW74817   4.101   0.846   8.190  0.2385  0.1670  0.3536
24459SOL    HW174818   4.012   0.880   8.199  0.1014 -0.3702  1.1054
24459SOL    HW274819   4.153   0.898   8.252  0.4007  0.3093  0.0995
24460SOL     OW74820   2.776   7.634   9.252 -0.3003  0.0492  0.5915
24460SOL    HW174821   2.742   7.550   9.222 -1.1029  0.6190 -0.1416
24460SOL    HW274822   2.705   7.670   9.307 -0.4780  0.7796 -0.0924
24461SOL     OW74823   6.454   5.572   9.001  0.1066  0.5850 -0.2573
24461SOL    HW174824   6.411   5.643   9.050  1.7990 -0.4474  2.9702
24461SOL    HW274825   6.547   5.592   9.006  0.6419 -1.8134  0.7922
24462SOL     OW74826   7.481   2.949   9.954  0.0056  0.3415 -0.5846
24462SOL    HW174827   7.489   3.022  10.016  1.3618  0.9448 -1.4209
24462SOL    HW274828   7.545   2.885   9.984 -0.4484 -0.0539 -0.4557
24463SOL     OW74829   2.092   5.715  11.638  0.7394  0.0673  0.3716
24463SOL    HW174830   2.047   5.787  11.681  0.1419  0.4694 -0.8827
24463SOL    HW274831   2.040   5.637  11.660  0.6034  0.2263  0.6093
24464SOL     OW74832   2.363   0.145   1.876  0.1721  0.1624 -0.8984
24464SOL    HW174833   2.421   0.122   1.803  0.1921  1.5105 -1.3419
24464SOL    HW274834   2.284   0.179   1.834 -0.2280  0.0058 -0.2851
24465SOL     OW74835   0.293   5.682   5.560 -0.0352  0.4931 -0.5349
24465SOL    HW174836   0.271   5.665   5.651  2.6946  3.1420  0.8211
24465SOL    HW274837   0.246   5.615   5.510 -0.5560 -1.9250  2.8824
24466SOL     OW74838   1.264   4.841   5.418 -0.1738 -0.4921  0.2549
24466SOL    HW174839   1.343   4.795   5.447 -0.6870 -1.9213 -0.5103
24466SOL    HW274840   1.275   4.851   5.324 -0.0113  1.1442  0.4181
24467SOL     OW74841   4.444   5.631   9.117 -0.4564 -0.2157  0.8459
24467SOL    HW174842   4.404   5.671   9.194 -0.9610 -1.4437  1.2454
24467SOL    HW274843   4.497   5.559   9.151  0.4995  0.1380  0.1538
24468SOL     OW74844   7.098   1.989   4.663  0.4715  0.7483  0.1137
24468SOL    HW174845   7.012   1.987   4.621  0.2969  2.2402  0.3613
24468SOL    HW274846   7.080   1.971   4.755  0.6251 -0.4956 -0.0798
24469SOL     OW74847   1.310   1.510   5.652  0.0488 -0.3042  0.0989
24469SOL    HW174848   1.233   1.474   5.696 -0.3826  0.6923  0.1886
24469SOL    HW274849   1.308   1.603   5.673 -0.2138  0.2405 -2.0673
24470SOL     OW74850   4.272   6.568   0.513 -0.3667 -0.6278  0.3913
24470SOL    HW174851   4.226   6.575   0.429 -0.8164  0.1807  0.6940
24470SOL    HW274852   4.321   6.486   0.507  1.0087  0.2489 -1.3668
24471SOL     OW74853   2.057   6.490  11.004  0.2634  0.0704 -0.1278
24471SOL    HW174854   2.139   6.525  11.038  0.2331 -0.3493  0.3872
24471SOL    HW274855   1.996   6.563  11.008  0.7607  0.5576 -1.0743
24472SOL     OW74856   4.118   4.374   3.289 -0.2604  0.0910 -0.1267
24472SOL    HW174857   4.172   4.443   3.251  0.0437  0.1119  0.3292
24472SOL    HW274858   4.154   4.361   3.377  0.8298 -1.8402 -0.7832
24473SOL     OW74859   7.843   2.871   9.798 -0.1655 -0.4489 -0.0912
24473SOL    HW174860   7.796   2.806   9.852  0.3861  0.6163  1.7768
24473SOL    HW274861   7.933   2.868   9.831  0.9113 -1.6533 -2.8571
24474SOL     OW74862   5.971   0.261   1.219 -0.0303 -0.0694  0.7624
24474SOL    HW174863   5.945   0.174   1.250  1.4874  0.3291  3.4719
24474SOL    HW274864   6.054   0.278   1.263  1.9014  1.1089 -2.9397
24475SOL     OW74865   6.231   3.837   9.478 -0.2138 -0.4856 -0.0675
24475SOL    HW174866   6.153   3.792   9.446 -0.8287  1.2423 -1.0901
24475SOL    HW274867   6.212   3.852   9.571 -2.2320  1.9746 -0.7506
24476SOL     OW74868   6.733   3.524   4.649 -0.1528 -0.3783 -0.1752
24476SOL    HW174869   6.746   3.579   4.572  0.3253 -1.1111 -0.6272
24476SOL    HW274870   6.639   3.509   4.653 -0.0696 -1.3644 -1.3540
24477SOL     OW74871   4.120   5.611   0.095  0.3840 -0.2348  0.3315
24477SOL    HW174872   4.034   5.577   0.073  0.0798  0.8131 -0.1945
24477SOL    HW274873   4.125   5.605   0.191  0.0609 -1.0357  0.3043
24478SOL     OW74874   2.130   1.291   8.626  0.5922  0.4805  0.1663
24478SOL    HW174875   2.073   1.294   8.702  0.4541 -0.2638  0.1024
24478SOL    HW274876   2.076   1.252   8.557  1.7197 -2.1600  0.6432
24479SOL     OW74877   7.941   4.323   7.606  0.3087  0.1137 -0.3610
24479SOL    HW174878   8.029   4.360   7.615  0.8276 -0.7930 -1.3958
24479SOL    HW274879   7.939   4.251   7.670 -0.1132  0.8374  0.4728
24480SOL     OW74880   3.653   1.391   2.801 -0.6278  0.1172  0.5065
24480SOL    HW174881   3.691   1.461   2.853 -1.3517  1.0929 -0.2230
24480SOL    HW274882   3.692   1.401   2.714 -1.2073  0.0316  0.2240
24481SOL     OW74883   0.069   2.923   8.066  0.6328 -0.6304 -0.1345
24481SOL    HW174884   0.071   2.912   7.971  1.4857 -1.6645 -0.0144
24481SOL    HW274885   0.011   2.854   8.097  0.7248 -0.5911  0.1319
24482SOL     OW74886   6.562   5.827   7.663 -0.9581  0.0163 -0.2318
24482SOL    HW174887   6.584   5.767   7.592 -1.5098 -0.5502  0.0596
24482SOL    HW274888   6.610   5.795   7.738  0.5201  1.2782 -0.5802
24483SOL     OW74889   4.794   7.660   8.774 -0.2885 -0.2546 -0.0713
24483SOL    HW174890   4.723   7.723   8.783  0.0285  0.1540 -0.4356
24483SOL    HW274891   4.768   7.605   8.700 -1.7552 -2.1338  1.7030
24484SOL     OW74892   2.978   2.308   2.691 -0.0038  0.0343  0.3459
24484SOL    HW174893   2.902   2.358   2.662  1.1843  1.3341 -0.6497
24484SOL    HW274894   2.956   2.217   2.672 -0.8973  0.4871 -0.8826
24485SOL     OW74895   1.815   6.884   7.422  0.1565 -0.4400  0.1060
24485SOL    HW174896   1.805   6.914   7.513  0.7474 -0.8382  0.3088
24485SOL    HW274897   1.889   6.823   7.425  1.3897  0.9162 -0.9528
24486SOL     OW74898   1.746   4.610   4.246 -0.0928 -0.5574 -0.1456
24486SOL    HW174899   1.744   4.535   4.306 -0.0552 -0.0457  0.5176
24486SOL    HW274900   1.669   4.661   4.269 -2.5191 -2.4343 -3.3802
24487SOL     OW74901   3.093   6.352   1.914 -0.1905 -0.3213 -0.5880
24487SOL    HW174902   3.119   6.261   1.932  2.0753  0.4988  0.7583
24487SOL    HW274903   2.999   6.353   1.927 -0.3992 -2.6281 -1.3665
24488SOL     OW74904   0.976   1.971  11.641 -0.3372  0.3914 -0.0626
24488SOL    HW174905   0.903   2.009  11.691  0.1425  2.5261 -0.8840
24488SOL    HW274906   1.049   2.032  11.655  0.0410  0.6479 -2.6527
24489SOL     OW74907   1.748   7.916   0.027  0.2232  0.8593 -0.0635
24489SOL    HW174908   1.665   7.950  -0.007  0.0448  0.6783  0.1882
24489SOL    HW274909   1.814   7.948  -0.035 -0.2395 -0.7049 -1.4519
24490SOL     OW74910   5.806   3.450   5.612 -0.7949  0.0633 -0.3070
24490SOL    HW174911   5.809   3.392   5.688 -1.8748  1.9640  1.2595
24490SOL    HW274912   5.897   3.478   5.600 -0.7650  0.5711  0.9693
24491SOL     OW74913   0.730   3.852   7.853  0.4000  0.1260 -0.3435
24491SOL    HW174914   0.637   3.833   7.858 -0.2213  2.8684 -0.0927
24491SOL    HW274915   0.773   3.769   7.876 -1.9624 -0.9140  0.6111
24492SOL     OW74916   4.702   5.948   3.493 -0.0510  0.1884  0.5933
24492SOL    HW174917   4.622   5.984   3.455  0.9502 -0.7330 -2.7092
24492SOL    HW274918   4.674   5.868   3.538 -1.2581  1.1277  1.5657
24493SOL     OW74919   2.626   4.033   5.085  0.2651  0.2948  0.1744
24493SOL    HW174920   2.560   4.102   5.077  0.3910  0.4339  0.3152
24493SOL    HW274921   2.578   3.952   5.070  0.7343  0.5391 -3.7068
24494SOL     OW74922   5.821   6.090  10.726 -0.1872  0.3424 -0.2327
24494SOL    HW174923   5.870   6.133  10.796 -0.2009  0.2732 -0.1804
24494SOL    HW274924   5.730   6.092  10.755 -0.7901  3.5330 -1.8245
24495SOL     OW74925   6.487   2.893   2.455  0.6878 -0.3302  0.4762
24495SOL    HW174926   6.457   2.931   2.373  1.1450  2.8623  1.6622
24495SOL    HW274927   6.414   2.906   2.516  1.2695 -0.4047  1.2024
24496SOL     OW74928   6.547   6.225   8.171  0.4843 -0.7619 -0.0297
24496SOL    HW174929   6.499   6.218   8.254 -2.8748  2.4504 -1.4125
24496SOL    HW274930   6.623   6.280   8.192 -0.1709 -0.2071  0.9921
24497SOL     OW74931   6.995   3.297   6.730  0.1406 -0.1583 -0.0756
24497SOL    HW174932   7.079   3.309   6.685 -0.1216 -0.9361 -0.7873
24497SOL    HW274933   6.946   3.377   6.712  1.6591  1.5267  2.5282
24498SOL     OW74934   7.551   7.072  10.430  0.1431 -0.3796 -0.2126
24498SOL    HW174935   7.487   7.004  10.452 -0.5921  0.1269 -0.7223
24498SOL    HW274936   7.604   7.033  10.361 -1.0938 -0.0174 -1.4208
24499SOL     OW74937   7.728   1.966   2.007  0.4748 -0.2887 -0.0513
24499SOL    HW174938   7.657   1.927   1.956  1.1936  0.7286 -1.9492
24499SOL    HW274939   7.729   1.917   2.089 -2.5032 -0.2255  0.1306
24500SOL     OW74940   3.022   2.196   9.330  0.0044 -0.1879  0.2284
24500SOL    HW174941   3.036   2.198   9.235  1.0098  0.2088  0.3751
24500SOL    HW274942   2.933   2.162   9.340  0.0844 -0.7553 -0.8356
24501SOL     OW74943   7.737   7.658   9.809 -0.2393 -0.0128  0.4362
24501SOL    HW174944   7.793   7.615   9.744  1.6711  1.4319  1.0336
24501SOL    HW274945   7.729   7.594   9.880 -0.5545 -0.7820 -0.2882
24502SOL     OW74946   0.815   4.906   3.055  0.2256  0.1042 -0.1779
24502SOL    HW174947   0.860   4.959   3.120  0.4956  0.3445 -0.5622
24502SOL    HW274948   0.722   4.927   3.068  0.2491 -0.0872  0.3392
24503SOL     OW74949   2.873   3.835   7.029 -0.2568  0.3128  0.2535
24503SOL    HW174950   2.942   3.895   7.000 -0.2026  0.8187  1.3722
24503SOL    HW274951   2.864   3.772   6.958  2.5563 -0.8174  0.7740
24504SOL     OW74952   3.884   5.587   2.050  0.5602  0.4074  0.4382
24504SOL    HW174953   3.938   5.509   2.047 -0.0500 -0.0535  1.1488
24504SOL    HW274954   3.800   5.560   2.014  0.9206  1.2471 -1.1342
24505SOL     OW74955   7.947   2.227   5.739 -0.5018  0.4686 -0.4741
24505SOL    HW174956   7.935   2.167   5.813  0.1165  0.6955 -0.1823
24505SOL    HW274957   7.893   2.190   5.669  1.6926 -1.8252 -1.1302
24506SOL     OW74958   2.964   6.527  11.753 -0.1719 -0.2976 -0.1410
24506SOL    HW174959   2.978   6.599  11.692  0.0331 -1.1134 -1.0787
24506SOL    HW274960   2.941   6.570  11.835 -0.6386  0.8196 -0.8268
24507SOL     OW74961   4.199   6.790   8.384 -0.0297  0.5999  0.0117
24507SOL    HW174962   4.132   6.798   8.316 -0.1945 -1.0281 -0.0642
24507SOL    HW274963   4.282   6.800   8.337 -0.1454 -0.4190 -0.4346
24508SOL     OW74964   4.218   6.790   6.526 -0.0545  0.2975  0.7821
24508SOL    HW174965   4.271   6.730   6.578 -0.7706 -1.1508 -0.1071
24508SOL    HW274966   4.131   6.751   6.525 -0.2728  0.7694 -0.7220
24509SOL     OW74967   5.663   2.678   7.861  0.0474 -0.2267 -0.9203
24509SOL    HW174968   5.646   2.706   7.951  1.1623  1.0875 -1.0863
24509SOL    HW274969   5.741   2.726   7.835 -0.6089 -0.0936 -2.8102
24510SOL     OW74970   6.597   6.664  12.397  0.2667 -0.1637  0.0724
24510SOL    HW174971   6.686   6.698  12.407 -0.2297  1.7751 -1.4691
24510SOL    HW274972   6.557   6.676  12.483  1.0647  0.3127  0.3900
24511SOL     OW74973   3.189   5.656   2.555 -0.6099  0.1280  0.5217
24511SOL    HW174974   3.147   5.592   2.613  0.9958 -1.4799  0.0008
24511SOL    HW274975   3.146   5.645   2.471 -0.8247  0.2643  0.6122
24512SOL     OW74976   6.520   7.742   9.559 -0.3634 -0.1390 -0.2911
24512SOL    HW174977   6.435   7.757   9.518 -0.4121  0.3208 -0.0305
24512SOL    HW274978   6.544   7.826   9.597  1.4555  0.4932 -2.6073
24513SOL     OW74979   3.054   1.434   9.781  0.4213 -0.4016 -0.3826
24513SOL    HW174980   3.087   1.347   9.804 -2.0889 -1.4603 -0.4329
24513SOL    HW274981   2.964   1.418   9.751 -0.4123  2.2880  0.3865
24514SOL     OW74982   6.042   3.580   4.139 -0.2711  0.7787 -0.1515
24514SOL    HW174983   6.047   3.675   4.137 -0.9877  0.8276 -0.0469
24514SOL    HW274984   5.961   3.560   4.091  0.4292  0.1690 -1.1035
24515SOL     OW74985   4.716   5.373   8.953  0.2748 -0.5095 -0.1407
24515SOL    HW174986   4.721   5.440   8.886 -0.5573 -0.2936 -0.0079
24515SOL    HW274987   4.721   5.290   8.905 -0.5036 -0.3594 -0.4938
24516SOL     OW74988   4.964   6.259   6.266  0.1926 -0.2916 -0.0134
24516SOL    HW174989   4.950   6.272   6.172  0.2145 -1.1410 -0.1467
24516SOL    HW274990   4.877   6.265   6.305 -0.1231 -2.0489 -0.3789
24517SOL     OW74991   7.207   2.572   9.571 -0.1688  0.3671  0.3505
24517SOL    HW174992   7.282   2.630   9.562 -1.0282  1.4692  0.0209
24517SOL    HW274993   7.188   2.543   9.482  0.8031 -1.1632  0.6179
24518SOL     OW74994   0.750   3.183   4.474  0.1136  0.5330 -0.1129
24518SOL    HW174995   0.746   3.278   4.485  0.2690  0.4694  0.5182
24518SOL    HW274996   0.813   3.153   4.540 -1.8587 -0.2835  1.5035
24519SOL     OW74997   0.250   3.282   0.368 -0.5290  0.2568  0.0936
24519SOL    HW174998   0.297   3.314   0.290 -0.1303 -1.3960 -0.3955
24519SOL    HW274999   0.313   3.224   0.411 -1.1935  0.1729  0.9679
24520SOL     OW75000   2.867   5.767   8.039  0.2250  0.2202 -0.4927
24520SOL    HW175001   2.817   5.714   7.976 -0.0662 -0.9906  0.7164
24520SOL    HW275002   2.900   5.704   8.103  0.7215  1.3935  0.4498
24521SOL     OW75003   1.602   7.107   1.315  0.1142 -0.5614 -0.4397
24521SOL    HW175004   1.698   7.108   1.320  0.1298  0.4295 -0.9166
24521SOL    HW275005   1.582   7.021   1.278  0.7364 -1.3861  1.0263
24522SOL     OW75006   6.329   3.801   6.517 -0.5473 -0.5012  0.0737
24522SOL    HW175007   6.379   3.832   6.441 -0.1724  0.5579  0.7352
24522SOL    HW275008   6.317   3.707   6.501  1.9192 -0.8619  0.0454
24523SOL     OW75009   5.555   2.954   7.303  0.1251  0.1554  0.1972
24523SOL    HW175010   5.508   2.871   7.292 -2.7149  1.6900 -0.2825
24523SOL    HW275011   5.614   2.959   7.228  0.7219 -1.6215  0.5066
24524SOL     OW75012   2.533   7.211   8.257  0.4052  0.1234 -0.5463
24524SOL    HW175013   2.608   7.213   8.199  0.8375 -0.1369 -0.0066
24524SOL    HW275014   2.569   7.228   8.344  0.0035 -1.0470 -0.1287
24525SOL     OW75015   0.708   5.118   5.307  0.1646  0.8123 -0.2508
24525SOL    HW175016   0.758   5.186   5.262  1.0376 -0.1325 -0.7391
24525SOL    HW275017   0.737   5.123   5.398 -0.2487  1.5065 -0.1485
24526SOL     OW75018   1.663   5.125   9.522  0.0829  0.1303 -0.0292
24526SOL    HW175019   1.641   5.129   9.429  2.0660  0.9304 -0.5138
24526SOL    HW275020   1.608   5.055   9.557 -0.6740 -0.2003 -1.8017
24527SOL     OW75021   3.553   0.017  11.235 -0.8274  0.6846 -0.1190
24527SOL    HW175022   3.531  -0.076  11.233 -0.0454  0.4806  0.0347
24527SOL    HW275023   3.643   0.019  11.269  1.0790  1.1026 -4.4274
24528SOL     OW75024   5.516   4.266  11.102  0.5886 -0.0142  0.8644
24528SOL    HW175025   5.467   4.338  11.143  0.4026 -0.6391  1.7616
24528SOL    HW275026   5.449   4.204  11.073  0.7306  0.3071 -0.2054
24529SOL     OW75027   1.870   3.455   2.412 -0.4653  0.3126 -0.1938
24529SOL    HW175028   1.896   3.495   2.495  0.6513  0.8143 -0.7693
24529SOL    HW275029   1.832   3.527   2.362 -0.5030  0.1625 -0.3818
24530SOL     OW75030   3.239   0.280   2.242  0.4082 -0.3087  0.0748
24530SOL    HW175031   3.283   0.352   2.286 -0.3953 -0.2127  0.7484
24530SOL    HW275032   3.277   0.278   2.154  1.4672  0.0057  0.5181
24531SOL     OW75033   0.730   2.307   1.567  0.7048  0.4013 -0.0869
24531SOL    HW175034   0.781   2.234   1.533  3.4761  1.7531  0.8629
24531SOL    HW275035   0.670   2.267   1.630  0.2145 -1.3158 -1.5669
24532SOL     OW75036   1.693   6.866   5.010  0.2452  0.4903  0.0139
24532SOL    HW175037   1.742   6.925   4.953  3.3007 -0.1659  1.7486
24532SOL    HW275038   1.655   6.923   5.077 -0.6626  0.8997 -0.8181
24533SOL     OW75039   0.422   0.588   8.637  0.2279 -0.0903 -0.2021
24533SOL    HW175040   0.449   0.645   8.709  1.0926 -1.3659  0.5334
24533SOL    HW275041   0.486   0.605   8.568  0.4616 -0.1401  0.0004
24534SOL     OW75042   1.598   0.710  11.055 -0.2533 -0.2460  0.0512
24534SOL    HW175043   1.607   0.803  11.034  1.0385  0.3979  2.9572
24534SOL    HW275044   1.652   0.698  11.134 -3.0745 -2.6815  1.8153
24535SOL     OW75045   1.598   5.440   9.031  0.3893 -0.3476  0.0363
24535SOL    HW175046   1.681   5.482   9.011  0.7710 -2.1086 -2.4504
24535SOL    HW275047   1.611   5.402   9.118  2.4596 -1.1293 -0.5639
24536SOL     OW75048   6.407   4.837   3.213  0.2897  0.0727 -0.3822
24536SOL    HW175049   6.478   4.834   3.277  1.0676 -0.1717 -1.2398
24536SOL    HW275050   6.439   4.894   3.143 -1.0691  1.4076  0.0269
24537SOL     OW75051   4.480   4.615   3.018 -0.2359 -0.0538 -0.1241
24537SOL    HW175052   4.487   4.668   2.939 -4.1883  0.0809 -0.5754
24537SOL    HW275053   4.470   4.525   2.986 -1.1333 -0.0863  0.2282
24538SOL     OW75054   6.736   1.688   7.206  0.1888  0.2358  0.1425
24538SOL    HW175055   6.727   1.705   7.300 -1.2787 -0.2491  0.1165
24538SOL    HW275056   6.819   1.730   7.182  0.4631  0.5866  1.5960
24539SOL     OW75057   2.674   2.629   3.616  0.6935 -0.5876  0.2602
24539SOL    HW175058   2.720   2.547   3.635  0.5055 -0.6776  0.3330
24539SOL    HW275059   2.591   2.601   3.578 -1.0102 -0.5991  3.6390
24540SOL     OW75060   1.116   5.082   1.443  0.1643  0.0452 -0.0458
24540SOL    HW175061   1.137   5.067   1.350  1.2147  0.6216  0.0813
24540SOL    HW275062   1.181   5.146   1.472 -0.1849 -0.0926  1.0870
24541SOL     OW75063   0.717   3.772  11.051  0.5655 -0.0051 -0.0665
24541SOL    HW175064   0.684   3.770  11.141 -1.3115 -1.1719 -0.7129
24541SOL    HW275065   0.701   3.683  11.018  1.2687  0.3856 -1.5377
24542SOL     OW75066   3.247   1.523   0.776  0.3523  0.2839  0.0460
24542SOL    HW175067   3.242   1.562   0.688 -3.6439 -2.4010 -1.1956
24542SOL    HW275068   3.180   1.570   0.826  1.3083  0.5259  1.1324
24543SOL     OW75069   3.096   0.453   7.342 -0.1166  0.5977 -0.2604
24543SOL    HW175070   3.096   0.508   7.421  0.0427  0.6201 -0.2763
24543SOL    HW275071   3.103   0.363   7.376 -1.9778  0.4533 -0.1427
24544SOL     OW75072   7.482   3.450   0.360  0.4328  0.0841 -0.4584
24544SOL    HW175073   7.470   3.365   0.318  1.1560 -1.2048  1.7616
24544SOL    HW275074   7.577   3.463   0.361  0.6181 -0.8057  2.2012
24545SOL     OW75075   7.888   3.906   3.620 -0.0701  0.3014  0.3140
24545SOL    HW175076   7.810   3.957   3.597  0.2996  1.1514  0.9218
24545SOL    HW275077   7.915   3.865   3.537 -0.0991  1.4727 -0.2985
24546SOL     OW75078   6.584   7.831  11.808 -0.3136  0.4027  0.3052
24546SOL    HW175079   6.496   7.822  11.845 -1.2868  0.5223 -1.8623
24546SOL    HW275080   6.629   7.891  11.868 -1.1385 -0.8902  2.3454
24547SOL     OW75081   4.216   6.707  12.336  0.4931 -0.5447  0.2599
24547SOL    HW175082   4.147   6.772  12.347 -2.0811 -2.7841 -1.4677
24547SOL    HW275083   4.225   6.667  12.423 -0.8406 -0.6199  0.3847
24548SOL     OW75084   4.461   2.035   5.094 -0.0826 -0.1731 -0.1323
24548SOL    HW175085   4.546   1.994   5.108 -1.3011 -2.5487  0.7273
24548SOL    HW275086   4.476   2.095   5.021  1.6945 -2.5133 -1.8316
24549SOL     OW75087   4.123   5.572   9.092  0.3487  0.0542  0.2910
24549SOL    HW175088   4.109   5.553   8.999 -3.8787 -0.0561  0.7335
24549SOL    HW275089   4.176   5.652   9.093 -0.6300  0.8246 -2.2892
24550SOL     OW75090   6.327   7.919   3.866  0.2440 -0.4380  0.0048
24550SOL    HW175091   6.342   7.958   3.780 -1.2377 -0.4547 -0.2910
24550SOL    HW275092   6.232   7.922   3.878  0.3689 -0.9950  1.3815
24551SOL     OW75093   7.653   4.743   7.074 -0.2458  0.0183 -0.4690
24551SOL    HW175094   7.584   4.740   7.141  0.2994 -2.2182  0.0822
24551SOL    HW275095   7.637   4.665   7.020  0.0127  1.1640 -2.2937
24552SOL     OW75096   3.960   7.495   5.596 -0.2437 -0.3753  0.0479
24552SOL    HW175097   4.044   7.502   5.643  0.6179 -2.3966 -1.0880
24552SOL    HW275098   3.945   7.584   5.563  2.1660 -0.2321 -0.8689
24553SOL     OW75099   1.515   0.796  12.151 -0.2613  0.0981  0.0391
24553SOL    HW175100   1.556   0.741  12.084  0.2541 -1.8970  1.8750
24553SOL    HW275101   1.471   0.734  12.209 -1.3258  1.8103  1.1628
24554SOL     OW75102   3.376   2.714   2.044 -0.1355 -0.2877  0.3155
24554SOL    HW175103   3.295   2.763   2.027 -1.4404 -1.3378  2.8845
24554SOL    HW275104   3.393   2.728   2.138  1.0443 -2.3934  0.4675
24555SOL     OW75105   6.865   1.315   7.030 -0.3008  0.0115 -0.3676
24555SOL    HW175106   6.810   1.345   7.103 -1.2980 -1.0153 -0.6740
24555SOL    HW275107   6.874   1.221   7.044 -1.1875 -0.3513 -1.9851
24556SOL     OW75108   3.717   6.102   9.718 -0.0985  0.1408 -0.5057
24556SOL    HW175109   3.664   6.030   9.685  0.7690 -0.4020 -0.7247
24556SOL    HW275110   3.701   6.102   9.813  0.7888 -1.0836 -0.3406
24557SOL     OW75111   4.492   3.608   2.379  0.6265 -0.1372 -0.4317
24557SOL    HW175112   4.431   3.625   2.450  1.6977  1.7627  0.0902
24557SOL    HW275113   4.438   3.613   2.300  0.0355  1.3144  0.0304
24558SOL     OW75114   2.421   4.506  10.063  0.1234 -0.0116 -0.1084
24558SOL    HW175115   2.484   4.517   9.991  1.5200  1.5467  1.2423
24558SOL    HW275116   2.336   4.503  10.021  0.9847 -0.4964 -1.9051
24559SOL     OW75117   5.018   2.981   8.500 -0.3778  0.2192 -0.1404
24559SOL    HW175118   5.080   2.908   8.492 -0.3333  0.1865  0.4399
24559SOL    HW275119   4.955   2.951   8.566 -1.6200 -0.1730 -1.4446
24560SOL     OW75120   4.567   1.324   5.451  0.2075  0.7206 -0.3065
24560SOL    HW175121   4.535   1.320   5.360  2.4485 -0.6322 -1.1127
24560SOL    HW275122   4.660   1.300   5.445  0.0022 -1.3050  2.5626
24561SOL     OW75123   5.582   2.432  11.391  0.4484  0.4482 -0.7705
24561SOL    HW175124   5.574   2.518  11.432  0.8711  0.3213 -0.4156
24561SOL    HW275125   5.664   2.436  11.343  0.9916 -0.1003  0.0921
24562SOL     OW75126   6.376   0.038   8.796  0.0779  1.0565 -0.5994
24562SOL    HW175127   6.446   0.072   8.851  0.3309 -1.5511  0.8105
24562SOL    HW275128   6.415   0.030   8.709  1.5381 -0.2960  0.1472
24563SOL     OW75129   3.867   2.281   8.938  0.0309  0.4415 -0.6985
24563SOL    HW175130   3.895   2.345   9.003 -1.0283 -1.3853  1.6958
24563SOL    HW275131   3.783   2.315   8.906 -0.0168  0.7781 -0.2231
24564SOL     OW75132   5.360   3.541   3.491  0.1191  0.1531 -0.0604
24564SOL    HW175133   5.387   3.529   3.400 -0.2168 -0.7842 -0.0447
24564SOL    HW275134   5.273   3.580   3.485 -0.1827 -0.5176 -0.1593
24565SOL     OW75135   5.239   6.303   7.907 -0.7210  0.4879  0.2351
24565SOL    HW175136   5.237   6.399   7.898 -0.3879  0.3999 -0.9803
24565SOL    HW275137   5.315   6.286   7.963  0.2656  0.8684 -0.9436
24566SOL     OW75138   1.450   0.173   7.896 -0.2273  0.0178 -0.4496
24566SOL    HW175139   1.512   0.242   7.919 -1.6815  0.6234  2.0375
24566SOL    HW275140   1.416   0.198   7.811  0.6379  1.3519 -0.4293
24567SOL     OW75141   2.422   7.756   6.240  0.0788 -0.1802 -0.4212
24567SOL    HW175142   2.487   7.815   6.202 -1.1347  0.6655 -1.2454
24567SOL    HW275143   2.391   7.704   6.166 -0.1606 -0.6063 -0.0263
24568SOL     OW75144   6.971   0.695   9.242 -0.1474  0.0167  0.3051
24568SOL    HW175145   6.906   0.700   9.312  0.1659  0.8874  0.5484
24568SOL    HW275146   7.053   0.674   9.286 -0.3077 -1.4635 -0.0450
24569SOL     OW75147   0.512   5.468  11.968  0.2494  0.1892  0.8716
24569SOL    HW175148   0.573   5.536  11.940 -0.0069  0.7108  1.5523
24569SOL    HW275149   0.456   5.453  11.892  1.4321 -0.5519  0.1120
24570SOL     OW75150   7.921   5.596   3.224 -0.4170  0.3871  0.5034
24570SOL    HW175151   7.928   5.610   3.318 -2.0419 -1.3970  0.9552
24570SOL    HW275152   7.973   5.666   3.185  0.1947  1.2330  2.7112
24571SOL     OW75153   2.275   0.910   0.575 -0.7582  0.7352 -0.9016
24571SOL    HW175154   2.370   0.922   0.564 -0.5642 -0.2641 -0.4356
24571SOL    HW275155   2.253   0.961   0.653 -0.3613 -0.0493 -0.2639
24572SOL     OW75156   4.785   3.740   1.730 -0.2661  0.1677 -0.7716
24572SOL    HW175157   4.800   3.808   1.664  0.4089 -0.3670 -1.1700
24572SOL    HW275158   4.808   3.782   1.813  0.0523  0.4578 -1.0042
24573SOL     OW75159   7.600   1.452  11.086  0.0857 -0.4112 -0.5019
24573SOL    HW175160   7.513   1.476  11.056 -0.2112  0.6566  1.1266
24573SOL    HW275161   7.588   1.369  11.133 -0.0248 -0.3559 -0.4332
24574SOL     OW75162   4.620   3.875   3.814  0.0790  0.2192  0.6634
24574SOL    HW175163   4.615   3.853   3.721  0.4193  1.4443  0.3308
24574SOL    HW275164   4.557   3.947   3.824 -0.2329 -0.1613  1.4632
24575SOL     OW75165   1.160   1.042   8.112 -0.2033 -0.6136  0.3725
24575SOL    HW175166   1.222   1.042   8.039  1.1387  0.2847  1.4589
24575SOL    HW275167   1.167   0.954   8.149  1.5047 -0.1484  1.2994
24576SOL     OW75168   0.643   1.679   9.085 -0.4475 -0.0026 -0.0343
24576SOL    HW175169   0.716   1.699   9.027 -0.6732  0.4161 -0.1829
24576SOL    HW275170   0.643   1.750   9.150 -0.1350 -0.5226  0.5436
24577SOL     OW75171   3.934   4.842   9.821 -0.8235  0.0597 -0.3878
24577SOL    HW175172   4.018   4.797   9.824 -1.3412 -1.0007 -0.9571
24577SOL    HW275173   3.945   4.912   9.758 -0.2158  0.2579 -0.0627
24578SOL     OW75174   2.564   4.257   4.274 -0.2276  0.1229  0.3275
24578SOL    HW175175   2.631   4.264   4.341 -0.5756 -0.5242  0.7619
24578SOL    HW275176   2.509   4.183   4.302  0.2916 -0.9311 -1.2642
24579SOL     OW75177   3.167   4.380  11.377 -0.2852  0.3329 -0.0865
24579SOL    HW175178   3.102   4.319  11.412  0.3379  0.3214  1.1253
24579SOL    HW275179   3.116   4.452  11.340 -1.0187 -0.6918 -1.1320
24580SOL     OW75180   0.067   2.065  12.074  0.7100  0.0358  0.3152
24580SOL    HW175181   0.012   2.023  12.007  1.7355 -2.0100  0.6703
24580SOL    HW275182   0.005   2.108  12.132 -0.2662  1.0139 -1.3713
24581SOL     OW75183   4.970   0.800   8.487 -0.2625  0.5550 -0.3730
24581SOL    HW175184   4.997   0.820   8.398 -0.4206 -0.9961 -0.7926
24581SOL    HW275185   4.953   0.886   8.527  1.5932  1.3684 -1.2466
24582SOL     OW75186   0.604   6.150   9.417 -0.6969 -0.6235 -0.2571
24582SOL    HW175187   0.553   6.091   9.472 -1.3943  2.3017  2.5067
24582SOL    HW275188   0.548   6.226   9.404  1.7633  1.4264  0.3234
24583SOL     OW75189   6.946   0.714   6.470  0.5974  0.3083 -0.4793
24583SOL    HW175190   6.957   0.641   6.409  0.6598  0.5618 -0.7695
24583SOL    HW275191   6.994   0.786   6.430  0.4389  0.5425 -0.2459
24584SOL     OW75192   0.138   1.800   6.941 -0.3199  0.3352  0.4440
24584SOL    HW175193   0.200   1.814   6.869 -0.2517 -2.1883 -0.0943
24584SOL    HW275194   0.064   1.754   6.900  0.1017 -1.9495  2.0659
24585SOL     OW75195   5.456   2.880  10.994 -0.2876 -0.0470 -0.2396
24585SOL    HW175196   5.552   2.882  10.996 -0.2402  3.3476  0.8173
24585SOL    HW275197   5.433   2.791  11.019  2.5609 -1.0066 -0.6544
24586SOL     OW75198   6.726   5.470   6.210  0.1134 -0.8150 -0.2387
24586SOL    HW175199   6.631   5.466   6.205  0.1197 -1.4939  0.1446
24586SOL    HW275200   6.744   5.525   6.287  0.0443  0.9596 -1.4317
24587SOL     OW75201   4.451   0.716   8.029 -0.3593 -0.0261 -0.6157
24587SOL    HW175202   4.397   0.658   8.084  0.1950 -0.0176 -0.0456
24587SOL    HW275203   4.405   0.800   8.031 -1.3509 -0.5234 -1.7264
24588SOL     OW75204   5.327   5.298   6.695  0.5212  0.3663  0.3056
24588SOL    HW175205   5.258   5.297   6.761 -1.7679 -1.4684 -1.8501
24588SOL    HW275206   5.366   5.384   6.701 -0.7990  0.8736  2.8096
24589SOL     OW75207   0.035   2.069   2.046  0.3745  0.3780  0.0364
24589SOL    HW175208  -0.044   2.090   1.995 -0.0159  3.7831  1.8128
24589SOL    HW275209   0.006   2.001   2.107 -0.6988  0.3459 -0.4824
24590SOL     OW75210   6.595   3.541  12.041  0.6187  0.3221 -0.7543
24590SOL    HW175211   6.601   3.446  12.035 -2.0190 -0.1817  2.0972
24590SOL    HW275212   6.666   3.565  12.102 -0.0137 -0.1194  0.1708
24591SOL     OW75213   0.519   5.459   2.699  0.3632 -0.9036  0.0280
24591SOL    HW175214   0.424   5.463   2.686  0.1490 -0.3171  1.4966
24591SOL    HW275215   0.532   5.499   2.785  1.9775 -0.7395 -0.2726
24592SOL     OW75216   0.509   4.762   5.004  0.6548  0.5212  0.2453
24592SOL    HW175217   0.552   4.847   4.993  2.6711 -0.4668  0.1136
24592SOL    HW275218   0.497   4.730   4.914 -0.3550  0.7531  0.2825
24593SOL     OW75219   1.226   4.119  11.151  0.1022  0.1160  0.2959
24593SOL    HW175220   1.156   4.065  11.113  0.2380  0.0834  0.0881
24593SOL    HW275221   1.306   4.080  11.116  0.1689  1.0345 -0.6194
24594SOL     OW75222   4.131   0.538   3.879 -0.1379 -0.0781 -0.1865
24594SOL    HW175223   4.077   0.598   3.931  0.5462  2.2936 -2.0557
24594SOL    HW275224   4.213   0.585   3.866  0.5224 -1.5267 -1.5867
24595SOL     OW75225   1.437   3.265   1.939  0.9164 -0.1617  0.2394
24595SOL    HW175226   1.515   3.218   1.970  1.1580  1.2078  1.8512
24595SOL    HW275227   1.458   3.357   1.952 -0.0207  0.3794 -1.6999
24596SOL     OW75228   0.811   4.432   0.677 -0.1047  0.3340 -0.3038
24596SOL    HW175229   0.808   4.345   0.718  1.3398  0.9605  1.2692
24596SOL    HW275230   0.766   4.421   0.593 -1.7777 -1.4278  0.7299
24597SOL     OW75231   0.748   4.278   7.522  0.1488 -0.0203 -0.0528
24597SOL    HW175232   0.759   4.337   7.447  1.7015 -0.8847 -0.5617
24597SOL    HW275233   0.751   4.336   7.598  0.1537  0.7178 -0.6005
24598SOL     OW75234   0.070   5.695   2.406 -0.5766 -0.7962 -0.2195
24598SOL    HW175235   0.029   5.637   2.342 -0.4927 -1.9426  0.7167
24598SOL    HW275236   0.036   5.665   2.490 -1.2274  1.1207  0.2479
24599SOL     OW75237   7.265   6.881  11.131 -0.1728 -0.2821 -0.1779
24599SOL    HW175238   7.206   6.809  11.110 -1.2994  0.4978  0.2470
24599SOL    HW275239   7.254   6.895  11.225  0.0369  0.4434 -0.2548
24600SOL     OW75240   2.452   7.292  10.175  0.6150  0.2453  0.7191
24600SOL    HW175241   2.499   7.357  10.123  0.2765 -1.0099 -1.2263
24600SOL    HW275242   2.515   7.221  10.188 -0.1553 -0.6582 -0.3691
24601SOL     OW75243   2.953   6.197   8.198  0.1716 -0.0739 -0.4135
24601SOL    HW175244   2.982   6.112   8.165  0.5132 -0.2856  0.4051
24601SOL    HW275245   3.007   6.261   8.150  0.9715 -0.3951  0.0452
24602SOL     OW75246   5.821   1.662   5.598 -1.2615  0.3216  0.0487
24602SOL    HW175247   5.802   1.581   5.646 -0.0266  0.2722  0.4720
24602SOL    HW275248   5.774   1.652   5.515  0.1803 -1.5641 -0.5908
24603SOL     OW75249   2.982   0.337  11.277 -0.0904 -0.3230 -0.4279
24603SOL    HW175250   2.892   0.357  11.303  0.3736  0.9761  0.2718
24603SOL    HW275251   3.025   0.422  11.271  1.1143 -0.9244 -0.6867
24604SOL     OW75252   6.627   4.714   1.302 -0.5930  0.2005  0.1204
24604SOL    HW175253   6.614   4.734   1.395 -0.2044  0.9008  0.0259
24604SOL    HW275254   6.559   4.763   1.257 -0.7397 -0.0871  0.0222
24605SOL     OW75255   2.907   5.009   7.115  0.0616  0.1630 -0.0354
24605SOL    HW175256   2.974   4.984   7.053  0.9264 -1.3692  1.4395
24605SOL    HW275257   2.828   4.965   7.084 -0.2860  1.7822 -1.6409
24606SOL     OW75258   1.868   5.141   8.023  0.5672  0.0520 -0.4349
24606SOL    HW175259   1.911   5.142   7.938  0.7701 -1.3812 -0.3867
24606SOL    HW275260   1.801   5.073   8.015 -0.7463  1.2584 -0.0468
24607SOL     OW75261   2.096   0.395   3.579  0.0795  0.0006  0.3032
24607SOL    HW175262   2.165   0.420   3.640  0.2747  0.9094 -0.2627
24607SOL    HW275263   2.136   0.330   3.521  0.1967 -0.1171  0.5177
24608SOL     OW75264   3.965   6.481   0.118 -0.1296 -0.4826 -0.6773
24608SOL    HW175265   3.883   6.434   0.102  0.8579 -2.2512 -0.8209
24608SOL    HW275266   3.950   6.568   0.082 -1.9313 -0.7754 -0.7264
24609SOL     OW75267   5.325   3.262   7.851  0.0920 -0.4285  0.0080
24609SOL    HW175268   5.305   3.268   7.944  2.6133  0.2538  0.5949
24609SOL    HW275269   5.406   3.211   7.847  0.4181  0.1441 -1.7447
24610SOL     OW75270   5.868   4.180  10.458 -0.2403 -0.4075 -0.5399
24610SOL    HW175271   5.905   4.267  10.474 -1.5380 -0.1595  1.3743
24610SOL    HW275272   5.929   4.140  10.396 -0.5555  2.4882 -2.9320
24611SOL     OW75273   0.752   6.267   6.818  0.0728 -0.1360  0.0809
24611SOL    HW175274   0.762   6.361   6.806 -0.4714 -0.1760 -0.7668
24611SOL    HW275275   0.681   6.259   6.882  0.0700  0.0192  0.0991
24612SOL     OW75276   5.491   3.377   2.435 -0.2283 -0.0971 -0.1255
24612SOL    HW175277   5.494   3.283   2.452 -0.9758 -0.0167  0.5030
24612SOL    HW275278   5.578   3.398   2.400 -0.4874 -1.2444 -1.5499
24613SOL     OW75279   2.037   2.567   9.302 -0.5755  0.5124  0.5967
24613SOL    HW175280   2.055   2.528   9.217 -2.3308 -0.0782  0.4617
24613SOL    HW275281   1.955   2.527   9.330 -0.7377  1.7114  1.9593
24614SOL     OW75282   3.456   6.706  10.808 -0.5733 -0.2687  0.3166
24614SOL    HW175283   3.414   6.689  10.724 -0.1466 -0.4416  0.1295
24614SOL    HW275284   3.435   6.630  10.861 -0.5499 -0.3262  0.2441
24615SOL     OW75285   5.879   2.962  10.417  0.2421  0.2623  0.0049
24615SOL    HW175286   5.943   2.990  10.351 -0.2964  0.9637 -0.2306
24615SOL    HW275287   5.869   2.868  10.402  0.9967  0.1943 -0.1421
24616SOL     OW75288   6.650   6.648   3.105  0.4889 -0.4448 -0.0925
24616SOL    HW175289   6.573   6.598   3.131  0.1158 -0.2173 -0.7281
24616SOL    HW275290   6.705   6.650   3.183  0.7561 -2.2838 -0.1964
24617SOL     OW75291   7.608   1.489  10.564 -0.3625 -0.4230 -0.2702
24617SOL    HW175292   7.644   1.402  10.580  1.1124  0.4995  2.0759
24617SOL    HW275293   7.568   1.514  10.648 -0.1233  1.3954 -0.6432
24618SOL     OW75294   3.905   6.697   4.405  0.5398  0.3815  0.6055
24618SOL    HW175295   3.838   6.748   4.359  0.2530 -1.4479 -1.1294
24618SOL    HW275296   3.855   6.649   4.472  0.1212 -0.7244 -0.4665
24619SOL     OW75297   4.388   7.320  12.066 -0.4164 -0.0767  0.0606
24619SOL    HW175298   4.419   7.275  11.987 -0.5507  0.4108 -0.2746
24619SOL    HW275299   4.305   7.361  12.039  0.3539  1.4976 -0.0412
24620SOL     OW75300   1.146   1.250   6.056 -0.3482  0.1851 -0.3509
24620SOL    HW175301   1.137   1.263   6.150  0.7276  1.8613 -0.4182
24620SOL    HW275302   1.060   1.221   6.027 -0.1182 -2.6005  1.4249
24621SOL     OW75303   6.025   7.071   2.485 -0.3520  0.2667 -0.0726
24621SOL    HW175304   6.115   7.075   2.518 -0.2345  0.8875 -0.4398
24621SOL    HW275305   6.033   7.029   2.399 -0.7668 -2.1465  1.0082
24622SOL     OW75306   1.809   0.976  10.860 -0.2529 -0.5263 -0.6757
24622SOL    HW175307   1.886   0.989  10.916  0.3768 -1.5065 -1.2757
24622SOL    HW275308   1.808   0.881  10.842 -1.4695 -0.4904 -0.8650
24623SOL     OW75309   1.877   0.483   2.742 -0.4084  0.6452  0.2232
24623SOL    HW175310   1.833   0.559   2.702 -1.1082  0.8664  1.3558
24623SOL    HW275311   1.806   0.436   2.785  0.3241  0.4434  1.2230
24624SOL     OW75312   0.112   3.503   2.717 -0.0115 -0.0460 -0.2930
24624SOL    HW175313   0.163   3.428   2.686 -0.9897 -1.3994  1.2186
24624SOL    HW275314   0.021   3.478   2.702 -0.3348  1.5805 -1.3057
24625SOL     OW75315   3.402   0.364   2.819 -0.0899  0.2215  0.0264
24625SOL    HW175316   3.385   0.364   2.914 -2.7225 -0.9592 -0.3508
24625SOL    HW275317   3.377   0.451   2.790  1.8651  0.9967  0.5303
24626SOL     OW75318   6.614   0.034  12.272 -0.5327 -0.3625  0.0176
24626SOL    HW175319   6.608   0.104  12.207  0.4441 -0.1587  0.1416
24626SOL    HW275320   6.581  -0.044  12.226 -1.0295  0.0411 -0.3186
24627SOL     OW75321   6.993   1.065  12.096 -0.1680  0.2554  0.0824
24627SOL    HW175322   6.951   0.979  12.093  2.7794 -1.3521  0.4898
24627SOL    HW275323   6.954   1.108  12.172 -1.9236 -0.5592 -0.3051
24628SOL     OW75324   0.459   5.309   4.193  0.3440  0.0572  0.2697
24628SOL    HW175325   0.496   5.232   4.237 -0.7911  0.1276  1.4249
24628SOL    HW275326   0.395   5.343   4.256  0.1266  1.3736 -0.6358
24629SOL     OW75327   6.463   5.727   6.741  0.9593  0.2755  0.0098
24629SOL    HW175328   6.487   5.686   6.658  0.3014 -1.1369  0.4846
24629SOL    HW275329   6.370   5.749   6.731  0.6811 -0.5705  0.6068
24630SOL     OW75330   3.220   7.497   8.880  0.4694  0.2869 -0.6716
24630SOL    HW175331   3.285   7.440   8.918 -0.1715 -0.3915 -0.5695
24630SOL    HW275332   3.266   7.580   8.864  1.2562 -0.0785 -0.3152
24631SOL     OW75333   1.443   1.527   5.419  0.3558  0.0037  0.3563
24631SOL    HW175334   1.364   1.515   5.365  0.0350  0.4168  0.7223
24631SOL    HW275335   1.414   1.505   5.508  0.3310  1.2930  0.6875
24632SOL     OW75336   5.784   1.372   3.894  0.1279 -0.6435  0.3990
24632SOL    HW175337   5.706   1.381   3.948  0.5974  0.0203  0.9795
24632SOL    HW275338   5.816   1.462   3.883 -1.3544 -0.3700 -3.1186
24633SOL     OW75339   6.375   7.357   8.456  0.1731 -0.3764  0.0382
24633SOL    HW175340   6.431   7.282   8.473 -1.1517 -1.5328 -0.4996
24633SOL    HW275341   6.334   7.339   8.371  1.6487  2.1344 -1.3550
24634SOL     OW75342   0.252   7.821   7.586  0.2662 -0.4616 -0.0546
24634SOL    HW175343   0.276   7.755   7.521 -0.1548 -0.1667 -0.5230
24634SOL    HW275344   0.176   7.784   7.631  0.1962 -0.4122 -0.1323
24635SOL     OW75345   2.003   6.517   7.203 -0.0389  0.0684  0.1754
24635SOL    HW175346   1.925   6.461   7.194  0.0589 -0.0937  0.3196
24635SOL    HW275347   2.025   6.511   7.295  0.5006 -0.3725  0.0220
24636SOL     OW75348   0.802   2.748   1.632  0.1052  0.0616 -0.0643
24636SOL    HW175349   0.855   2.765   1.554 -0.2288  1.7886  0.0395
24636SOL    HW275350   0.839   2.805   1.700 -1.0047  0.2795  0.3952
24637SOL     OW75351   4.652   0.932   5.514  0.6933  0.1659  0.1967
24637SOL    HW175352   4.600   0.852   5.511  1.1964 -0.2355  1.5847
24637SOL    HW275353   4.722   0.918   5.450 -0.1313  0.1901 -0.7466
24638SOL     OW75354   1.803   5.400   2.873  0.7290  0.1583  0.2709
24638SOL    HW175355   1.843   5.482   2.902  1.2883  0.1091 -0.3207
24638SOL    HW275356   1.835   5.335   2.935  4.3571 -0.5038 -1.9730
24639SOL     OW75357   1.408   4.159   7.505  0.1810  0.1641  0.1226
24639SOL    HW175358   1.477   4.094   7.517  1.8724  1.9359  0.4606
24639SOL    HW275359   1.426   4.196   7.418 -1.0453 -0.1103 -0.2641
24640SOL     OW75360   2.202   5.235   4.441 -0.0988  0.4002 -0.3351
24640SOL    HW175361   2.292   5.216   4.467 -0.7861  0.1942  2.2583
24640SOL    HW275362   2.209   5.297   4.369  2.1094  0.2916 -0.2653
24641SOL     OW75363   7.292   1.702   1.297  0.4543 -0.2823 -0.0235
24641SOL    HW175364   7.242   1.706   1.216  0.2768  1.0566  0.1254
24641SOL    HW275365   7.301   1.608   1.315 -1.8972 -0.5880 -0.1255
24642SOL     OW75366   1.507   6.853   1.247  0.5645  0.1248  0.3804
24642SOL    HW175367   1.541   6.768   1.220  1.7199  0.7967 -0.3919
24642SOL    HW275368   1.504   6.849   1.342  0.7233 -0.7344  0.3556
24643SOL     OW75369   5.754   4.637   2.902  0.5259  0.0970  0.1929
24643SOL    HW175370   5.669   4.661   2.866  0.6289 -0.3833 -0.3830
24643SOL    HW275371   5.737   4.615   2.994 -0.0014 -0.1645  0.0336
24644SOL     OW75372   2.574   7.210  11.019  0.4605 -0.2827  0.1126
24644SOL    HW175373   2.619   7.265  11.083  0.3942  0.4230 -0.4420
24644SOL    HW275374   2.625   7.129  11.019  1.0099  0.0516  0.3866
24645SOL     OW75375   0.162   1.768   0.302 -0.0755 -0.1372  0.2561
24645SOL    HW175376   0.173   1.861   0.286 -0.8494 -0.0510  0.1619
24645SOL    HW275377   0.069   1.758   0.323  0.3262 -0.6453  1.9371
24646SOL     OW75378   4.539   6.607  10.437 -0.8833  0.4241  0.1352
24646SOL    HW175379   4.483   6.638  10.508  1.2101  1.3211  1.4790
24646SOL    HW275380   4.623   6.587  10.479  0.6171  1.4869 -2.1614
24647SOL     OW75381   6.243   1.840   2.172  0.5774  0.1842  0.3672
24647SOL    HW175382   6.184   1.893   2.225  0.0346 -0.7335  0.7169
24647SOL    HW275383   6.281   1.777   2.235  0.9465 -0.0582 -0.0910
24648SOL     OW75384   2.690   2.847   0.961 -0.1228  0.5053  0.3333
24648SOL    HW175385   2.742   2.866   1.039 -0.1331 -0.0015  0.4666
24648SOL    HW275386   2.662   2.756   0.972 -0.1319  0.4334 -0.2542
24649SOL     OW75387   2.962   6.392   1.083  0.1521 -0.1749  0.2720
24649SOL    HW175388   2.916   6.329   1.139  0.7698 -0.4662  0.4593
24649SOL    HW275389   2.935   6.478   1.115  0.0770 -0.3418  0.6613
24650SOL     OW75390   3.862   1.326   7.719  0.3064  0.2387 -0.1102
24650SOL    HW175391   3.771   1.311   7.746  0.0631 -0.2577 -1.1659
24650SOL    HW275392   3.904   1.240   7.725  0.4111  0.2447 -0.6684
24651SOL     OW75393   7.386   0.233   0.418 -0.1270  0.6147  0.1623
24651SOL    HW175394   7.425   0.290   0.352  0.3718 -0.3637 -0.4146
24651SOL    HW275395   7.292   0.234   0.398  0.1228 -0.4468 -1.2217
24652SOL     OW75396   0.182   7.553  10.540 -0.1588 -0.1038 -0.2346
24652SOL    HW175397   0.195   7.462  10.564 -0.8204 -0.5099 -1.3160
24652SOL    HW275398   0.266   7.595  10.557  1.6569 -1.8657 -3.7363
24653SOL     OW75399   4.521   5.773   2.454  0.0333 -0.3064  0.0620
24653SOL    HW175400   4.525   5.854   2.506  2.2234 -0.8373  0.8067
24653SOL    HW275401   4.431   5.770   2.423 -0.0967  2.4720 -0.0729
24654SOL     OW75402   3.542   6.642   7.810  0.6928  0.0693  0.1667
24654SOL    HW175403   3.500   6.726   7.828  1.7091  0.6258  0.0578
24654SOL    HW275404   3.517   6.586   7.884 -0.5562  0.2413 -0.1147
24655SOL     OW75405   2.749   2.443  10.166  0.6005  0.1678  0.8130
24655SOL    HW175406   2.757   2.356  10.205  0.7932  0.4033  1.3136
24655SOL    HW275407   2.807   2.441  10.090 -0.7412 -0.7098 -0.2361
24656SOL     OW75408   2.053   7.365   8.941  0.2344  0.3568  0.8893
24656SOL    HW175409   2.001   7.316   9.004  0.8152 -0.3824  0.8143
24656SOL    HW275410   2.076   7.446   8.986 -0.8498  0.6346  0.9698
24657SOL     OW75411   1.850   1.036   7.923 -0.4164 -0.9645  0.1238
24657SOL    HW175412   1.884   1.100   7.860 -1.1373  2.0017  2.5196
24657SOL    HW275413   1.926   0.983   7.947  0.4553 -0.3412 -1.1699
24658SOL     OW75414   1.206   6.163   9.697  0.2209 -0.2199 -0.2458
24658SOL    HW175415   1.287   6.214   9.704 -0.8519  1.4627  0.6409
24658SOL    HW275416   1.166   6.171   9.783 -1.7659  0.5431 -1.1865
24659SOL     OW75417   3.969   3.045   2.076  0.5154  0.2494  0.1856
24659SOL    HW175418   4.009   2.960   2.058  1.1296  0.2131  1.6474
24659SOL    HW275419   4.043   3.105   2.084  0.2154  0.4723  1.4099
24660SOL     OW75420   5.632   0.796   1.996 -0.1954 -0.2561  0.3386
24660SOL    HW175421   5.624   0.746   2.078  0.8502  0.0832  0.6690
24660SOL    HW275422   5.581   0.876   2.012 -1.8160 -1.1451 -0.1668
24661SOL     OW75423   3.029   7.583   7.484  0.3496  0.6178 -0.2190
24661SOL    HW175424   3.078   7.537   7.415  2.1215  0.6229  0.9702
24661SOL    HW275425   3.087   7.581   7.560 -2.2521 -0.9520  1.8817
24662SOL     OW75426   1.250   0.158  10.841  0.0208  0.0161 -0.2288
24662SOL    HW175427   1.326   0.157  10.898 -1.9804  1.4405  2.6986
24662SOL    HW275428   1.249   0.071  10.801  1.7718 -0.9117  1.5945
24663SOL     OW75429   0.102   4.003   6.181  0.3143  0.4104  0.1412
24663SOL    HW175430   0.118   4.079   6.237  0.9931 -0.8413  1.7366
24663SOL    HW275431   0.073   3.934   6.241 -0.2336 -0.6181 -1.2360
24664SOL     OW75432   7.229   3.916  11.786 -0.3579  0.0916 -0.7095
24664SOL    HW175433   7.266   3.906  11.874 -1.3353  2.1503  0.0007
24664SOL    HW275434   7.305   3.928  11.729  0.2467 -0.3864 -0.0249
24665SOL     OW75435   1.709   5.564   5.416 -0.2962 -0.0627 -0.4491
24665SOL    HW175436   1.788   5.619   5.417 -0.7119  0.5530 -0.5816
24665SOL    HW275437   1.645   5.615   5.366 -1.0856 -0.1115  0.4820
24666SOL     OW75438   7.888   0.553   3.121  0.4810  0.0273  0.0578
24666SOL    HW175439   7.984   0.551   3.117  0.4736 -1.4045  0.0726
24666SOL    HW275440   7.860   0.531   3.032  0.2238 -2.7854  0.7321
24667SOL     OW75441   7.203   6.454  12.100  0.6423  0.2837 -0.1236
24667SOL    HW175442   7.126   6.439  12.155 -0.2963  2.1724 -0.8220
24667SOL    HW275443   7.185   6.403  12.021  1.3047 -1.2499  0.6748
24668SOL     OW75444   2.072   7.937   1.871  0.5177 -0.1204 -0.4165
24668SOL    HW175445   2.102   8.024   1.845  2.7959 -0.8588 -0.4853
24668SOL    HW275446   2.152   7.891   1.897 -1.0038 -0.9446  3.5070
24669SOL     OW75447   6.650   6.664   4.072 -0.4381 -0.2122  0.2828
24669SOL    HW175448   6.592   6.589   4.058 -0.7710  0.1946 -0.6360
24669SOL    HW275449   6.734   6.626   4.094 -0.9894 -0.8217  1.4038
24670SOL     OW75450   0.663   5.541   1.879  0.0391  0.4736  0.4787
24670SOL    HW175451   0.673   5.480   1.806  0.4575  0.2664  0.7052
24670SOL    HW275452   0.594   5.601   1.851  0.8513  0.9869 -0.5082
24671SOL     OW75453   0.390   3.766   6.164 -0.0702 -0.0613 -0.5242
24671SOL    HW175454   0.314   3.799   6.115  1.1853  3.2987 -0.4572
24671SOL    HW275455   0.461   3.764   6.100  2.0213  5.9002  0.9025
24672SOL     OW75456   6.634   3.351   3.812 -0.0660  0.3218  0.0091
24672SOL    HW175457   6.558   3.364   3.756 -0.5024 -0.6251  0.3619
24672SOL    HW275458   6.686   3.285   3.767  0.8825  1.4089 -0.5418
24673SOL     OW75459   4.427   7.904   0.192  0.5958  0.0338 -0.1058
24673SOL    HW175460   4.495   7.843   0.165  0.5313  0.2372 -0.7603
24673SOL    HW275461   4.424   7.969   0.121  0.8662  0.9567  0.7160
24674SOL     OW75462   6.222   6.733   8.673  0.2952  0.5113  0.4228
24674SOL    HW175463   6.164   6.779   8.734  1.4615 -0.2106  2.1904
24674SOL    HW275464   6.197   6.765   8.587 -2.2588  0.7215  1.1430
24675SOL     OW75465   3.045   7.587  10.065 -0.2889 -0.1695  0.5027
24675SOL    HW175466   2.992   7.643  10.122  0.0008 -0.1289  0.7381
24675SOL    HW275467   3.135   7.606  10.092 -0.0014  1.4265 -1.3710
24676SOL     OW75468   2.578   0.163   1.675 -0.4285  0.4986  0.4737
24676SOL    HW175469   2.640   0.091   1.680 -0.1879  0.7001  0.4233
24676SOL    HW275470   2.545   0.161   1.585  1.6454  2.1478 -0.3867
24677SOL     OW75471   3.262   6.944   9.177 -0.3704 -0.2234 -0.4531
24677SOL    HW175472   3.173   6.917   9.153 -0.8514  0.2704  0.7023
24677SOL    HW275473   3.251   7.033   9.212  0.5185 -0.3201  0.0887
24678SOL     OW75474   5.116   0.928  12.054  0.2133 -0.2617  0.2591
24678SOL    HW175475   5.157   0.847  12.083 -0.5651 -0.6943  0.1869
24678SOL    HW275476   5.123   0.987  12.129  0.2727 -0.5899  0.5105
24679SOL     OW75477   0.985   4.796   3.650  0.0877 -0.0737  0.1024
24679SOL    HW175478   1.069   4.771   3.610 -0.6249 -0.7447 -1.0353
24679SOL    HW275479   1.009   4.828   3.737  1.9567  3.0672 -1.3782
24680SOL     OW75480   0.978   4.083   8.876 -0.5257 -0.1686 -0.2876
24680SOL    HW175481   1.005   4.137   8.949  2.7574 -0.9357 -0.7819
24680SOL    HW275482   0.892   4.049   8.902 -1.2237  2.5735  1.4282
24681SOL     OW75483   2.104   5.911   1.552 -0.1805  0.1945 -0.2110
24681SOL    HW175484   2.010   5.902   1.561 -0.2485  1.3769  0.6197
24681SOL    HW275485   2.140   5.825   1.575 -1.0168 -0.0120  0.3560
24682SOL     OW75486   2.492   2.386  11.333 -0.4219  0.4653  0.3775
24682SOL    HW175487   2.500   2.473  11.294 -1.6923  0.6629  0.5136
24682SOL    HW275488   2.576   2.344  11.315  0.0666  1.5760 -0.0309
24683SOL     OW75489   6.282   3.615   2.814 -0.1752 -0.3379  0.0585
24683SOL    HW175490   6.320   3.638   2.898 -0.2779 -1.6006  0.4714
24683SOL    HW275491   6.357   3.589   2.759 -0.2034 -0.5191  0.1035
24684SOL     OW75492   3.596   5.029  11.494  0.2346  0.3832 -0.3081
24684SOL    HW175493   3.688   5.004  11.498  0.0626 -0.2046  0.1853
24684SOL    HW275494   3.550   4.949  11.471  0.0225  1.1232 -2.7428
24685SOL     OW75495   7.853   3.285   3.559  0.3214  0.2704  0.2720
24685SOL    HW175496   7.775   3.238   3.530 -0.2591  0.5711  1.3074
24685SOL    HW275497   7.842   3.295   3.653  1.3179  0.8645  0.3444
24686SOL     OW75498   0.045   2.822  11.407 -0.2543  0.0628  0.9513
24686SOL    HW175499   0.092   2.900  11.380  1.4936 -1.4999 -0.8764
24686SOL    HW275500  -0.004   2.795  11.329  1.2066 -1.9913  0.6485
24687SOL     OW75501   1.123   3.751   6.186 -0.0911  0.1012  0.2641
24687SOL    HW175502   1.195   3.734   6.247 -2.2119  1.0569  3.2363
24687SOL    HW275503   1.101   3.665   6.149  1.0067 -0.5720  1.1186
24688SOL     OW75504   7.015   4.141  10.361 -0.2474  0.2253  0.0807
24688SOL    HW175505   7.078   4.174  10.424  0.3749  0.2316 -0.5277
24688SOL    HW275506   7.049   4.055  10.335 -0.7332  0.0254  0.0917
24689SOL     OW75507   0.857   7.035   0.616  0.4808  0.1795 -0.0148
24689SOL    HW175508   0.802   7.024   0.694  1.6683  0.5646  0.9103
24689SOL    HW275509   0.802   7.005   0.544 -1.3995  1.6735  0.6983
24690SOL     OW75510   0.529   2.233   8.867  0.4551  0.3244 -0.5994
24690SOL    HW175511   0.609   2.250   8.817 -0.1637  0.7959 -1.4683
24690SOL    HW275512   0.482   2.317   8.865  0.2190  0.2281  0.4291
24691SOL     OW75513   3.456   2.392   7.491 -0.4751  0.2403 -0.5486
24691SOL    HW175514   3.481   2.409   7.400  0.6929 -1.1539 -0.5371
24691SOL    HW275515   3.433   2.299   7.493 -0.2308  0.1817  0.6268
24692SOL     OW75516   5.039   0.256   3.344  0.4050  0.5295 -0.4084
24692SOL    HW175517   4.988   0.296   3.274  0.9351 -0.0518 -1.1411
24692SOL    HW275518   5.019   0.163   3.338 -0.8232  0.6291  1.2801
24693SOL     OW75519   2.227   4.408   6.779 -0.1437 -0.3462  0.0933
24693SOL    HW175520   2.290   4.336   6.774 -0.0912 -0.2785 -0.3217
24693SOL    HW275521   2.219   4.439   6.688  0.2192  0.5009  0.3356
24694SOL     OW75522   5.447   6.092   0.441  0.4944  0.0875 -0.0584
24694SOL    HW175523   5.483   6.153   0.376 -0.5812  1.4610  0.5710
24694SOL    HW275524   5.358   6.124   0.455  0.2138 -1.1097  0.9844
24695SOL     OW75525   4.831   1.176  10.449 -0.2181 -0.5927  0.3827
24695SOL    HW175526   4.836   1.271  10.438  0.8057 -0.7583 -0.8978
24695SOL    HW275527   4.774   1.147  10.379  0.6109 -1.0323 -0.1324
24696SOL     OW75528   3.597   5.654  11.885  0.3012 -0.3117  0.0375
24696SOL    HW175529   3.558   5.608  11.810 -0.2680 -0.3823  0.3696
24696SOL    HW275530   3.666   5.709  11.847 -0.2004 -0.1002 -0.5813
24697SOL     OW75531   2.060   2.242   3.653 -0.2170 -0.0250  0.0813
24697SOL    HW175532   2.108   2.294   3.589  2.4996 -2.7551 -0.2915
24697SOL    HW275533   2.015   2.175   3.601  0.0091 -0.7686  0.8158
24698SOL     OW75534   6.840   6.485   1.488  0.3939  0.9963 -0.4915
24698SOL    HW175535   6.806   6.396   1.482  2.0914  0.3554 -0.9998
24698SOL    HW275536   6.913   6.478   1.549 -0.6137  2.4443  0.9749
24699SOL     OW75537   2.982   5.051   5.592  0.1318  0.1945 -0.0179
24699SOL    HW175538   2.896   5.039   5.553 -0.1708  0.3116  0.5959
24699SOL    HW275539   3.027   4.968   5.576 -0.8741 -0.7080  1.5375
24700SOL     OW75540   4.772   1.922   0.081  0.0115  0.1091  0.5823
24700SOL    HW175541   4.712   1.852   0.108 -0.5595 -0.6356 -2.3287
24700SOL    HW275542   4.858   1.880   0.079 -0.2627 -0.4186 -0.7300
24701SOL     OW75543   3.342   5.652  12.391  0.0497 -0.2896 -0.5317
24701SOL    HW175544   3.261   5.632  12.344  0.8763 -2.2941 -1.2035
24701SOL    HW275545   3.406   5.592  12.355  1.8948  1.3012 -0.0663
24702SOL     OW75546   7.500   6.982   6.025 -0.0949  0.0298  0.5858
24702SOL    HW175547   7.480   7.023   6.109  0.2255  0.5205  0.4221
24702SOL    HW275548   7.428   7.008   5.967  0.9253  1.7229  0.0216
24703SOL     OW75549   5.748   0.018  10.641 -0.2113 -0.0405 -0.6870
24703SOL    HW175550   5.758   0.109  10.613 -1.2385 -0.1059 -1.3253
24703SOL    HW275551   5.674  -0.015  10.589  0.2747 -1.2974 -0.6118
24704SOL     OW75552   5.380   0.907   5.797 -0.1562 -0.6718  0.7327
24704SOL    HW175553   5.347   0.977   5.742  2.1603  0.4826  0.6922
24704SOL    HW275554   5.307   0.846   5.805 -1.3509  0.3461 -1.5389
24705SOL     OW75555   6.760   0.427   7.806  0.1072 -0.5352  0.2404
24705SOL    HW175556   6.684   0.378   7.773  0.2521  0.6633 -2.0472
24705SOL    HW275557   6.723   0.502   7.852 -0.0856 -1.0611  0.9589
24706SOL     OW75558   1.581   4.391   2.805 -0.2703  0.6213 -0.0623
24706SOL    HW175559   1.521   4.325   2.772 -0.0673  1.2959 -1.9309
24706SOL    HW275560   1.525   4.453   2.853 -0.7590  0.1627 -0.0346
24707SOL     OW75561   5.415   0.667   9.166  0.0761  0.6307  0.5982
24707SOL    HW175562   5.367   0.631   9.091  1.8952 -0.2539 -0.2089
24707SOL    HW275563   5.445   0.753   9.135  2.4353 -0.4871 -0.5085
24708SOL     OW75564   2.135   2.751   7.236  0.2019 -0.3268  0.1386
24708SOL    HW175565   2.114   2.662   7.266  0.8308 -0.8908 -1.0315
24708SOL    HW275566   2.163   2.740   7.146 -1.6588  1.3229 -0.7295
24709SOL     OW75567   2.638   7.422  10.034 -0.2347 -0.1691 -0.2368
24709SOL    HW175568   2.729   7.392  10.026  0.1958  1.4382 -1.9710
24709SOL    HW275569   2.640   7.514  10.009 -2.0546  0.4686  1.6536
24710SOL     OW75570   6.679   7.374  10.456  0.0249  0.1967 -0.5921
24710SOL    HW175571   6.665   7.279  10.455 -0.8042  0.2541  1.2387
24710SOL    HW275572   6.751   7.388  10.394  3.8293 -2.3334  2.7495
24711SOL     OW75573   0.498   3.411   3.882  0.2052  0.2227 -0.0576
24711SOL    HW175574   0.572   3.446   3.931  0.1113  0.5265 -0.1261
24711SOL    HW275575   0.451   3.489   3.852 -0.3690  0.0258  0.3263
24712SOL     OW75576   0.618   0.399   1.548 -0.3173  0.4838  0.0091
24712SOL    HW175577   0.561   0.432   1.480  1.3063 -1.0124 -2.2143
24712SOL    HW275578   0.706   0.405   1.511  0.7286  0.2302  2.2466
24713SOL     OW75579   3.587   1.238   8.447 -0.1394 -0.1453 -0.1620
24713SOL    HW175580   3.502   1.247   8.404  0.1830 -0.8191 -0.9656
24713SOL    HW275581   3.648   1.288   8.392 -0.1910  1.2747  1.0206
24714SOL     OW75582   5.791   3.951   9.650 -0.0894 -0.2088  0.6032
24714SOL    HW175583   5.863   3.915   9.701  0.5825 -1.8771 -1.3655
24714SOL    HW275584   5.729   3.879   9.641 -2.3095  1.2919  2.5763
24715SOL     OW75585   4.616   4.921   1.418 -0.4507 -0.2828  0.2012
24715SOL    HW175586   4.621   4.969   1.335 -1.1572 -0.4096  0.0841
24715SOL    HW275587   4.703   4.883   1.429 -0.3425 -0.2270 -0.4571
24716SOL     OW75588   7.423   6.766   4.315  0.3243 -0.4930  0.3410
24716SOL    HW175589   7.423   6.823   4.238  2.4374  1.0639  1.4138
24716SOL    HW275590   7.330   6.755   4.336 -0.2013  1.4483 -0.7044
24717SOL     OW75591   6.769   7.172   4.860  0.7310 -0.1202 -0.0738
24717SOL    HW175592   6.822   7.204   4.787 -0.7710 -0.9886 -1.6214
24717SOL    HW275593   6.735   7.252   4.901 -0.5693  0.4140 -2.0369
24718SOL     OW75594   5.308   7.798  11.445 -0.0576 -0.2339 -0.0415
24718SOL    HW175595   5.218   7.827  11.457 -0.6833 -2.0819  0.1076
24718SOL    HW275596   5.301   7.720  11.390  1.4755 -0.2912 -0.2062
24719SOL     OW75597   3.747   7.744   8.620 -0.7032  0.4241  0.2691
24719SOL    HW175598   3.688   7.682   8.662  0.7764 -1.0565  0.2797
24719SOL    HW275599   3.783   7.697   8.545 -0.2574  1.6216 -0.2994
24720SOL     OW75600   4.637   5.211   5.439  0.1226 -0.1920 -0.1383
24720SOL    HW175601   4.558   5.232   5.488  0.8325 -2.6724  2.3347
24720SOL    HW275602   4.608   5.200   5.349 -2.2679 -0.5589  0.6242
24721SOL     OW75603   1.422   7.109   0.585  0.3483  0.4895  0.5299
24721SOL    HW175604   1.472   7.130   0.664  0.5448  1.5318  0.1349
24721SOL    HW275605   1.352   7.051   0.617  0.1339  1.2822  1.5663
24722SOL     OW75606   6.005   6.559   6.022  0.4275  0.0488 -0.0217
24722SOL    HW175607   6.023   6.468   5.998  1.5088  0.1743  0.2276
24722SOL    HW275608   5.935   6.553   6.087 -1.6573 -0.3796 -2.1610
24723SOL     OW75609   0.124   0.875   0.411  0.1580 -0.4947  0.0984
24723SOL    HW175610   0.212   0.870   0.449 -1.2788  1.6491  4.2843
24723SOL    HW275611   0.070   0.822   0.468 -1.4436 -1.3911 -2.1248
24724SOL     OW75612   6.739   1.991  10.275  0.2492 -0.0717 -0.1399
24724SOL    HW175613   6.771   2.043  10.348  2.2981  2.4601 -2.6023
24724SOL    HW275614   6.781   2.029  10.198 -2.2016 -2.1608 -2.7544
24725SOL     OW75615   2.547   2.549   2.995 -0.5286 -0.2550  0.4069
24725SOL    HW175616   2.621   2.494   2.968 -0.5523  0.6676 -1.7392
24725SOL    HW275617   2.578   2.591   3.075  0.5692 -1.2343  0.5394
24726SOL     OW75618   3.431   6.077  11.628 -0.2175 -0.2497 -0.3015
24726SOL    HW175619   3.370   6.023  11.678 -1.6353  1.1218 -0.4608
24726SOL    HW275620   3.447   6.152  11.685  1.4444 -0.6356 -0.2271
24727SOL     OW75621   6.403   2.357   1.320  0.0477  0.6995  0.1391
24727SOL    HW175622   6.321   2.312   1.340  0.4890 -1.3924 -2.2489
24727SOL    HW275623   6.471   2.304   1.363  0.3267  1.0623  0.1519
24728SOL     OW75624   7.761   7.691   1.294  0.0812  0.0227 -0.3282
24728SOL    HW175625   7.796   7.613   1.337 -1.0940  0.9952  2.6349
24728SOL    HW275626   7.666   7.681   1.300 -0.0853  1.3056 -0.6212
24729SOL     OW75627   3.027   2.048   2.508 -0.0278  0.4886 -0.5515
24729SOL    HW175628   3.119   2.062   2.529 -0.5895  0.2467  2.4896
24729SOL    HW275629   3.027   1.974   2.447  1.7955  0.9453 -1.1591
24730SOL     OW75630   1.932   1.514   2.208 -0.0819  0.5268 -0.3052
24730SOL    HW175631   2.015   1.484   2.245 -0.2489  2.9241  2.2607
24730SOL    HW275632   1.920   1.602   2.242 -2.8183  0.9799 -2.1122
24731SOL     OW75633   2.557   1.014   0.152 -0.6699 -0.3309  0.1069
24731SOL    HW175634   2.640   1.060   0.142 -0.2765 -0.9246  0.6192
24731SOL    HW275635   2.492   1.075   0.116 -0.5458  1.8825  3.1541
24732SOL     OW75636   4.892   7.575  11.985  0.1921  0.4944 -0.3520
24732SOL    HW175637   4.855   7.532  12.062  1.6730  0.7069  0.5061
24732SOL    HW275638   4.950   7.510  11.946  0.9397  1.0510 -0.1734
24733SOL     OW75639   1.272   0.383   3.944 -0.5776  0.7361  0.2257
24733SOL    HW175640   1.277   0.478   3.935  0.3840  0.7090  0.3661
24733SOL    HW275641   1.217   0.368   4.021  1.1671  1.2422  1.6086
24734SOL     OW75642   3.132   1.907  10.767  0.1670 -0.4274  0.3480
24734SOL    HW175643   3.128   1.937  10.857  0.3453  0.8181 -0.0321
24734SOL    HW275644   3.044   1.920  10.733  0.1526 -0.6896  0.2852
24735SOL     OW75645   4.384   5.621   4.610 -0.0794 -0.0090  0.0979
24735SOL    HW175646   4.426   5.615   4.696 -0.9530  0.5000  0.5747
24735SOL    HW275647   4.449   5.662   4.554 -0.4926  2.3846  1.2455
24736SOL     OW75648   7.750   7.217   2.822  0.4555  0.3183 -0.4608
24736SOL    HW175649   7.728   7.246   2.910 -1.3704  1.5092 -1.2668
24736SOL    HW275650   7.764   7.298   2.773 -0.0412 -0.2843 -1.6285
24737SOL     OW75651   2.434   5.496   4.458  0.2302  0.1701 -0.0551
24737SOL    HW175652   2.434   5.412   4.504  0.8407  1.6324  2.9145
24737SOL    HW275653   2.364   5.546   4.500  0.4473  1.4538 -1.1428
24738SOL     OW75654   0.512   3.528   9.158  0.7607  0.5915  0.1074
24738SOL    HW175655   0.501   3.540   9.063  0.1852 -1.2849 -0.1128
24738SOL    HW275656   0.452   3.456   9.179  0.8891  0.9827  1.9056
24739SOL     OW75657   2.200   5.732   9.477 -0.2243 -0.7021  0.1755
24739SOL    HW175658   2.278   5.698   9.522  0.8495  1.0808 -0.2486
24739SOL    HW275659   2.169   5.659   9.425  0.7714 -1.6600  0.8669
24740SOL     OW75660   3.464   0.025   7.155 -0.1510 -0.1363 -0.1109
24740SOL    HW175661   3.512   0.047   7.075 -1.4692 -0.2369 -0.9666
24740SOL    HW275662   3.380   0.069   7.145 -0.5173 -0.5471  1.0121
24741SOL     OW75663   6.151   1.014   7.099  0.1832 -0.2968 -0.0910
24741SOL    HW175664   6.208   1.064   7.158 -1.7874  1.4135  0.4888
24741SOL    HW275665   6.173   0.923   7.116  1.8964  0.2657  0.9485
24742SOL     OW75666   3.216   2.436  10.935 -0.2204  0.2347  0.4045
24742SOL    HW175667   3.258   2.402  10.856 -1.5112  1.1126 -0.7122
24742SOL    HW275668   3.265   2.396  11.007  0.2453 -1.5605 -0.8171
24743SOL     OW75669   5.509   6.608   3.925  0.5959  0.0532 -0.3384
24743SOL    HW175670   5.593   6.595   3.969  1.0731  1.3987 -0.8102
24743SOL    HW275671   5.464   6.674   3.977 -0.1327 -0.5685 -0.1610
24744SOL     OW75672   5.179   1.821   1.026  0.4297 -0.1377  0.1686
24744SOL    HW175673   5.127   1.744   1.048  0.5962 -0.9483 -2.0039
24744SOL    HW275674   5.264   1.785   0.998  0.0870  0.6731 -2.1332
24745SOL     OW75675   1.425   6.337   0.785  0.0175  0.6775 -0.1807
24745SOL    HW175676   1.491   6.363   0.721  1.8051 -3.1076 -0.1239
24745SOL    HW275677   1.361   6.287   0.734  0.7286 -1.1887  0.6612
24746SOL     OW75678   6.364   5.698   3.032 -0.2451  0.3528  0.2162
24746SOL    HW175679   6.442   5.710   3.086 -0.6306  1.0376  0.6372
24746SOL    HW275680   6.291   5.717   3.090 -0.6764  0.9087 -0.4845
24747SOL     OW75681   0.380   6.948   4.394 -0.2840 -0.1531  0.0266
24747SOL    HW175682   0.360   6.987   4.308 -0.4765 -0.8727 -0.2663
24747SOL    HW275683   0.470   6.917   4.385 -0.1235  0.2306  0.2676
24748SOL     OW75684   7.659   3.369  12.084  0.2993  0.2992  0.0604
24748SOL    HW175685   7.749   3.390  12.110  1.0240 -0.0243 -2.0082
24748SOL    HW275686   7.624   3.451  12.051  0.3408  0.1027 -0.4799
24749SOL     OW75687   1.168   0.723   4.711 -0.1786  0.0986 -0.3818
24749SOL    HW175688   1.211   0.655   4.659  1.2524  0.7980 -0.1486
24749SOL    HW275689   1.102   0.760   4.652 -2.0248 -2.4028 -0.0718
24750SOL     OW75690   6.498   7.480   3.927  0.1803  0.0683 -0.4893
24750SOL    HW175691   6.577   7.504   3.974 -0.1855  1.1681 -0.4209
24750SOL    HW275692   6.455   7.416   3.985  0.1064  0.8431  0.3397
24751SOL     OW75693   4.265   7.188   0.445  0.4103  0.5137 -0.0663
24751SOL    HW175694   4.267   7.092   0.440 -1.7255  0.4796 -3.0547
24751SOL    HW275695   4.345   7.211   0.493 -0.0691 -2.7733  2.6780
24752SOL     OW75696   0.448   7.005   0.188 -0.0167  0.1091  0.4426
24752SOL    HW175697   0.362   6.966   0.204  0.7110 -2.0495 -0.4379
24752SOL    HW275698   0.431   7.099   0.182 -2.7339 -0.3552 -1.8737
24753SOL     OW75699   4.978   4.819   0.178  0.1111 -0.3113  0.4019
24753SOL    HW175700   4.974   4.873   0.257  2.2164 -0.1484  0.4582
24753SOL    HW275701   4.977   4.883   0.106  0.6869 -0.2885  0.4059
24754SOL     OW75702   6.474   5.741   0.082 -0.2033  0.2087  0.2124
24754SOL    HW175703   6.405   5.788   0.034  1.0287  1.1003 -0.7337
24754SOL    HW275704   6.517   5.687   0.016  1.3355  1.2372  0.3135
24755SOL     OW75705   0.934   1.679   7.435  0.1226 -0.0848 -0.1065
24755SOL    HW175706   0.976   1.765   7.427  1.1454 -0.6148 -0.6091
24755SOL    HW275707   0.846   1.692   7.398  0.8608  0.3448 -1.8425
24756SOL     OW75708   2.166   7.381   8.496 -0.2472  0.0258  0.4024
24756SOL    HW175709   2.104   7.441   8.537 -0.4226 -0.9432  1.6190
24756SOL    HW275710   2.176   7.414   8.407 -1.3604  1.0692  0.6390
24757SOL     OW75711   0.165   5.474  10.677 -0.4077 -0.6994 -0.0752
24757SOL    HW175712   0.169   5.414  10.752  1.0265 -0.8192 -0.2235
24757SOL    HW275713   0.089   5.529  10.694 -0.6545 -1.3467  0.9951
24758SOL     OW75714   0.127   4.865   4.473 -0.2583  0.4078  0.3945
24758SOL    HW175715   0.157   4.954   4.492  1.6185 -0.6481  2.8427
24758SOL    HW275716   0.036   4.876   4.445  0.2128  3.1483 -0.3185
24759SOL     OW75717   6.699   1.641   8.617 -0.1639  0.0865 -0.2061
24759SOL    HW175718   6.668   1.620   8.705  1.1923 -1.0689  0.0155
24759SOL    HW275719   6.729   1.732   8.624 -1.1150  0.3910  0.2027
24760SOL     OW75720   0.191   0.572  11.930 -0.1211 -0.7766  0.4266
24760SOL    HW175721   0.272   0.622  11.916 -0.0580 -1.2760 -1.2579
24760SOL    HW275722   0.216   0.481  11.911 -0.5224 -1.3032  2.2576
24761SOL     OW75723   1.491   4.965  10.944 -0.2376  0.0855 -0.0273
24761SOL    HW175724   1.540   4.898  10.991  1.4628  1.0516 -0.3422
24761SOL    HW275725   1.400   4.945  10.962  0.2942 -0.9355  1.7686
24762SOL     OW75726   7.498   1.700   4.257 -0.5605 -0.4745  0.0343
24762SOL    HW175727   7.545   1.635   4.309 -0.1356  0.5674  0.9780
24762SOL    HW275728   7.542   1.698   4.172  0.0120 -0.8045  0.3284
24763SOL     OW75729   1.310   7.625   3.713 -0.2875 -0.2886  0.1067
24763SOL    HW175730   1.333   7.617   3.806 -1.3378 -0.8999  0.3295
24763SOL    HW275731   1.374   7.687   3.678 -1.2637  1.8089  1.7711
24764SOL     OW75732   4.974   3.760   4.097 -0.3594  0.0068  0.2550
24764SOL    HW175733   5.048   3.811   4.129 -0.3511 -0.0049  0.2545
24764SOL    HW275734   5.011   3.701   4.032 -0.5628  0.8921 -0.6954
24765SOL     OW75735   5.366   6.370   5.522  0.2956  0.3673 -0.3876
24765SOL    HW175736   5.376   6.327   5.437 -0.9012 -0.4285 -0.1626
24765SOL    HW275737   5.366   6.463   5.502  3.0480  0.3213 -0.8804
24766SOL     OW75738   5.810   4.906   4.849 -0.5164 -0.0953 -0.5382
24766SOL    HW175739   5.835   4.882   4.938 -1.8872  0.4428  0.0132
24766SOL    HW275740   5.719   4.932   4.856 -0.0299  2.1131 -1.6873
24767SOL     OW75741   4.745   0.279  11.910 -1.0237  0.0687 -0.0932
24767SOL    HW175742   4.664   0.256  11.956 -0.0894  0.4715  1.8580
24767SOL    HW275743   4.776   0.358  11.954  1.1612 -0.8635  0.1876
24768SOL     OW75744   3.588   7.740   7.269  0.0242  0.1853  0.0105
24768SOL    HW175745   3.669   7.772   7.230  0.3933  0.1107  0.6946
24768SOL    HW275746   3.555   7.675   7.207  0.5771  0.0925 -0.1919
24769SOL     OW75747   1.655   6.986   8.665 -0.1955  0.3037 -0.3795
24769SOL    HW175748   1.670   7.001   8.572 -1.4019  0.3252 -0.5859
24769SOL    HW275749   1.715   6.916   8.689  0.9591  1.0905 -0.8956
24770SOL     OW75750   6.680   5.501   8.051  0.2040 -0.3195 -0.6913
24770SOL    HW175751   6.724   5.463   8.127 -1.7111 -1.7580 -0.2282
24770SOL    HW275752   6.639   5.427   8.007  0.9301  0.5456 -2.9455
24771SOL     OW75753   1.294   4.802   8.118 -0.0364  0.0331  0.0340
24771SOL    HW175754   1.339   4.886   8.126  2.6136 -1.2450 -0.2499
24771SOL    HW275755   1.301   4.763   8.205 -1.4029  0.1450  0.2104
24772SOL     OW75756   5.670   5.404   3.091 -0.2366 -0.0147  0.0732
24772SOL    HW175757   5.722   5.356   3.155 -0.1978  0.1685  0.1807
24772SOL    HW275758   5.594   5.435   3.140 -0.5324 -0.4214 -0.1211
24773SOL     OW75759   1.109   7.713   8.465  0.2957  0.2180  0.3767
24773SOL    HW175760   1.131   7.620   8.456  2.3249  0.7204 -0.2336
24773SOL    HW275761   1.165   7.745   8.535 -0.2223  1.0591  0.4251
24774SOL     OW75762   4.404   0.817   3.349  0.4965 -0.2451  0.1097
24774SOL    HW175763   4.379   0.886   3.288  0.6556 -0.7925 -0.5932
24774SOL    HW275764   4.343   0.826   3.423  1.1737  1.2867  0.5213
24775SOL     OW75765   0.876   2.482   2.793 -0.4641 -0.4450 -0.0826
24775SOL    HW175766   0.889   2.405   2.739  0.5739  0.8277 -1.7201
24775SOL    HW275767   0.884   2.449   2.883  1.3356 -2.0191 -0.7402
24776SOL     OW75768   3.016   1.329   8.312 -0.0720  0.3502  0.1912
24776SOL    HW175769   3.064   1.344   8.393 -0.5476 -0.3888  0.6133
24776SOL    HW275770   2.937   1.381   8.321 -0.1446  0.2351  0.2244
24777SOL     OW75771   4.295   4.619   6.823  0.7628  0.5498 -0.5208
24777SOL    HW175772   4.361   4.675   6.782  0.1224  1.6456 -0.1068
24777SOL    HW275773   4.218   4.675   6.831  1.0637  0.6556  2.8682
24778SOL     OW75774   4.304   1.688  10.193  0.4047  0.0988  0.0807
24778SOL    HW175775   4.338   1.676  10.104 -1.0761  1.0788 -0.6587
24778SOL    HW275776   4.232   1.750  10.183  0.2938  0.3318  2.0025
24779SOL     OW75777   1.067   3.315  10.839  0.1381 -0.0514 -0.5255
24779SOL    HW175778   1.060   3.225  10.872 -0.0893 -0.0134 -0.4656
24779SOL    HW275779   0.984   3.356  10.864  0.1111  0.0824 -0.8325
24780SOL     OW75780   0.757   5.244   3.919  0.3063 -0.1877 -0.3439
24780SOL    HW175781   0.686   5.307   3.912  1.0621  0.5331 -2.1156
24780SOL    HW275782   0.765   5.206   3.831  0.8159 -1.7194  0.3198
24781SOL     OW75783   3.489   0.545   4.533  0.3974  0.1089  0.1188
24781SOL    HW175784   3.527   0.512   4.452  1.4379  1.3569  0.0542
24781SOL    HW275785   3.557   0.602   4.569 -0.8653  1.2525  0.7815
24782SOL     OW75786   4.917   5.313   8.206  0.1436  0.0596 -0.0559
24782SOL    HW175787   4.868   5.328   8.125 -1.8344  0.9139  1.2302
24782SOL    HW275788   4.927   5.218   8.211  1.4575  0.0415 -1.8982
24783SOL     OW75789   7.410   4.799   9.379  0.7485 -0.2493  0.3033
24783SOL    HW175790   7.320   4.824   9.360  0.5294 -1.2821 -0.1138
24783SOL    HW275791   7.404   4.710   9.413  1.6856 -0.7061 -0.6679
24784SOL     OW75792   6.735   0.513   6.691 -0.5431 -0.1537  0.0519
24784SOL    HW175793   6.719   0.419   6.693 -0.5626 -0.1734 -0.8385
24784SOL    HW275794   6.830   0.521   6.688 -0.5456 -0.2571 -3.2540
24785SOL     OW75795   2.881   1.388   0.098  0.2012  0.2881  0.3858
24785SOL    HW175796   2.845   1.380   0.186  0.8282  0.9415  0.7149
24785SOL    HW275797   2.906   1.480   0.091  0.5339  0.1501 -0.3262
24786SOL     OW75798   1.875   7.759  12.187  0.1248  0.2387 -0.0278
24786SOL    HW175799   1.818   7.761  12.110  2.2836  1.6635 -1.7321
24786SOL    HW275800   1.877   7.850  12.218  1.9876  0.4120 -0.5016
24787SOL     OW75801   5.122   6.956   8.757  0.1760  0.5537 -0.5401
24787SOL    HW175802   5.184   6.884   8.766 -1.0189 -0.4352  0.1534
24787SOL    HW275803   5.099   6.956   8.664 -0.3141 -0.4338 -0.4378
24788SOL     OW75804   4.148   3.770   4.158  0.0219 -0.1246 -0.4420
24788SOL    HW175805   4.130   3.858   4.126  0.7843  0.1888 -0.0284
24788SOL    HW275806   4.065   3.742   4.198 -0.1743  0.4702 -0.4232
24789SOL     OW75807   6.882   4.174   4.856 -0.4476  0.1025 -0.1466
24789SOL    HW175808   6.803   4.156   4.907 -1.0586 -0.2467 -1.1904
24789SOL    HW275809   6.858   4.246   4.799  0.3533  0.7470  0.2907
24790SOL     OW75810   3.386   2.673  10.331  0.4285  0.6100 -0.2437
24790SOL    HW175811   3.364   2.766  10.335 -0.4455  0.4680 -1.3825
24790SOL    HW275812   3.324   2.631  10.390 -0.6981  0.5096 -1.4642
24791SOL     OW75813   6.841   3.333   1.555 -0.0546 -0.4272  0.2184
24791SOL    HW175814   6.827   3.337   1.460  1.5184 -3.2431 -0.2571
24791SOL    HW275815   6.926   3.375   1.569 -0.4026  0.2196  0.4589
24792SOL     OW75816   5.465   0.534   2.446  0.1008  0.2859 -0.5664
24792SOL    HW175817   5.373   0.547   2.425 -0.1018  0.7152  0.5488
24792SOL    HW275818   5.476   0.439   2.444 -0.2322  0.2497 -1.1929
24793SOL     OW75819   6.973   2.506   1.917  0.2186 -0.0944 -0.4016
24793SOL    HW175820   7.014   2.524   2.001 -0.1800 -0.9432 -0.0140
24793SOL    HW275821   7.039   2.532   1.852  0.0836  1.7136  0.1134
24794SOL     OW75822   3.800   0.340  11.645 -0.4156 -0.2009  0.1183
24794SOL    HW175823   3.751   0.350  11.563  1.4690  0.6051 -0.9830
24794SOL    HW275824   3.751   0.390  11.709 -1.5294 -0.2207 -0.6929
24795SOL     OW75825   6.200   5.515   8.821  0.3026 -0.4998  1.0007
24795SOL    HW175826   6.145   5.593   8.812 -2.0443 -2.2467 -0.9845
24795SOL    HW275827   6.265   5.540   8.886 -0.7494  2.8669  0.9730
24796SOL     OW75828   0.913   1.276   4.099 -0.3717  0.1768 -0.8559
24796SOL    HW175829   0.984   1.217   4.074 -1.2097 -0.8899 -0.8055
24796SOL    HW275830   0.957   1.353   4.136  0.8099  0.5191 -2.8357
24797SOL     OW75831   1.821   3.643   3.230 -0.7365 -0.0703  0.2445
24797SOL    HW175832   1.759   3.581   3.267 -1.8142  1.2124  0.6455
24797SOL    HW275833   1.876   3.589   3.171 -3.0378 -1.0383 -1.1534
24798SOL     OW75834   6.469   7.758  10.559 -0.3978 -0.9284 -0.2628
24798SOL    HW175835   6.458   7.800  10.474  0.0057 -0.6083 -0.1624
24798SOL    HW275836   6.413   7.680  10.556  1.0040 -1.9408 -1.5080
24799SOL     OW75837   3.292   6.865   1.714  0.4627  0.0428 -0.2477
24799SOL    HW175838   3.347   6.889   1.789 -2.4465 -0.9033  2.4199
24799SOL    HW275839   3.351   6.820   1.654  2.6424 -0.7596  2.2977
24800SOL     OW75840   5.555   6.857   0.516  0.6458 -0.0196 -0.0828
24800SOL    HW175841   5.514   6.799   0.581 -0.2114  0.9533  0.2588
24800SOL    HW275842   5.491   6.926   0.500  0.7864 -0.3013 -2.0912
24801SOL     OW75843   6.428   0.688  10.092  0.0487  0.2779  0.2368
24801SOL    HW175844   6.415   0.783  10.088 -1.7686  0.0114 -1.8177
24801SOL    HW275845   6.522   0.676  10.076  0.1777  1.6991 -0.2383
24802SOL     OW75846   4.670   0.908   5.799 -0.3391 -0.4160  0.1870
24802SOL    HW175847   4.695   0.825   5.839 -0.6735 -0.2851  0.6740
24802SOL    HW275848   4.669   0.890   5.705  2.1849 -0.2733  0.0666
24803SOL     OW75849   1.515   3.609   5.804 -0.3070 -0.6673  0.0136
24803SOL    HW175850   1.471   3.526   5.821  0.4101 -0.6538  2.3113
24803SOL    HW275851   1.467   3.673   5.858  0.0421  0.1345 -0.5965
24804SOL     OW75852   5.226   6.510   0.452  0.4739 -0.3796 -0.1855
24804SOL    HW175853   5.149   6.535   0.401  0.7007  1.8962  0.4714
24804SOL    HW275854   5.299   6.520   0.392  0.5660  0.6774  0.0801
24805SOL     OW75855   2.911   0.499   5.130  0.2788  0.2027 -0.9196
24805SOL    HW175856   2.944   0.573   5.079  0.4471  0.6575 -0.1619
24805SOL    HW275857   2.830   0.531   5.169  0.1692 -0.1325 -0.8701
24806SOL     OW75858   6.545   5.575   0.829  0.0950  0.8578 -0.6199
24806SOL    HW175859   6.499   5.633   0.768 -0.8621  0.1742 -0.5668
24806SOL    HW275860   6.630   5.560   0.789 -0.0727  1.3787 -1.1873
24807SOL     OW75861   1.445   7.580   6.937  0.2469 -0.4301 -0.1371
24807SOL    HW175862   1.456   7.652   6.874  1.7032 -1.5997 -1.2957
24807SOL    HW275863   1.384   7.520   6.894  1.4539 -1.3640 -0.5950
24808SOL     OW75864   6.735   0.593   1.170 -0.1837  0.0435 -0.9984
24808SOL    HW175865   6.655   0.544   1.190  0.9119 -1.3350  0.2634
24808SOL    HW275866   6.723   0.622   1.080 -1.8168 -0.6980 -1.0583
24809SOL     OW75867   5.182   5.930   0.960 -0.4585  0.1623  0.0127
24809SOL    HW175868   5.189   5.912   0.866 -0.3274  0.0454  0.0447
24809SOL    HW275869   5.256   5.989   0.978  1.7021 -2.5603  0.7215
24810SOL     OW75870   7.421   5.511  11.780 -0.5974  0.3836 -0.0229
24810SOL    HW175871   7.383   5.574  11.719 -3.1353  0.1274  1.1488
24810SOL    HW275872   7.514   5.512  11.761 -0.9720  2.1534 -2.1579
24811SOL     OW75873   3.107   7.525   6.883  0.3836  0.1579  0.2419
24811SOL    HW175874   3.047   7.503   6.954  0.1535 -0.1377 -0.0413
24811SOL    HW275875   3.170   7.453   6.882  0.4877  0.2474  0.2509
24812SOL     OW75876   0.435   5.075   8.196 -0.0459 -0.1190  0.1197
24812SOL    HW175877   0.460   5.134   8.268  0.9683 -0.8823  0.4175
24812SOL    HW275878   0.496   5.097   8.126  0.5257 -1.0008  0.3328
24813SOL     OW75879   4.493   7.691   4.020 -0.0197  0.6174  0.6952
24813SOL    HW175880   4.476   7.598   4.013 -0.7652  0.7809  0.2212
24813SOL    HW275881   4.508   7.706   4.114  0.9925 -0.1140  0.6615
24814SOL     OW75882   0.429   2.623   2.080  0.0942 -0.1767  0.1158
24814SOL    HW175883   0.503   2.563   2.068  0.2195  0.0813 -0.4096
24814SOL    HW275884   0.390   2.632   1.994  0.8254  1.4528 -0.0862
24815SOL     OW75885   6.406   1.607  11.490  0.4331 -0.0842  0.0972
24815SOL    HW175886   6.324   1.558  11.480  0.0490 -0.2866  3.2984
24815SOL    HW275887   6.451   1.565  11.564  2.1239  1.7557  0.2218
24816SOL     OW75888   4.776   5.650   4.110  0.7274  0.2073 -0.1031
24816SOL    HW175889   4.691   5.688   4.131  0.7256  0.7255 -0.9955
24816SOL    HW275890   4.839   5.711   4.148  0.7106  0.3253 -0.2649
24817SOL     OW75891   6.694   0.673  10.047  0.1154  0.1414 -0.0193
24817SOL    HW175892   6.778   0.691  10.089  0.1744  1.4077 -0.6283
24817SOL    HW275893   6.698   0.581  10.022  1.4427  0.2528 -0.2823
24818SOL     OW75894   3.681   1.712   4.177 -0.0478  0.2223 -0.0683
24818SOL    HW175895   3.724   1.796   4.157 -0.3808  0.4338  0.0930
24818SOL    HW275896   3.590   1.736   4.195  0.2521  0.0558  1.8210
24819SOL     OW75897   2.151   4.854  10.152  0.1937 -0.4138  0.4600
24819SOL    HW175898   2.097   4.905  10.091  1.7445 -0.1420 -0.7486
24819SOL    HW275899   2.177   4.917  10.219  2.3780  0.5683 -1.2075
24820SOL     OW75900   4.287   2.465   4.426 -0.3598 -0.1438  0.0407
24820SOL    HW175901   4.225   2.514   4.372 -1.1837  0.8714  1.7781
24820SOL    HW275902   4.373   2.497   4.400 -0.7653  0.5949 -0.4132
24821SOL     OW75903   0.478   1.058  12.405  0.4258  0.5644 -0.3932
24821SOL    HW175904   0.498   1.087  12.494 -1.1388  0.1655  0.1118
24821SOL    HW275905   0.418   0.984  12.416  1.9899 -0.9940 -1.7360
24822SOL     OW75906   3.034   5.278   1.335  0.6424 -0.1488 -0.4353
24822SOL    HW175907   2.999   5.351   1.385 -1.3060 -0.9483 -0.5467
24822SOL    HW275908   3.025   5.202   1.393 -1.9180 -1.1464 -1.9993
24823SOL     OW75909   0.961   5.845  10.123  0.7606 -0.1567  0.0789
24823SOL    HW175910   1.047   5.813  10.096  0.6691  0.7368 -1.3408
24823SOL    HW275911   0.905   5.767  10.119  1.7178 -1.0346  2.2487
24824SOL     OW75912   3.087   2.063   9.774  0.0641  0.3779 -0.6148
24824SOL    HW175913   3.014   2.020   9.730 -0.9578  0.5833  0.8108
24824SOL    HW275914   3.156   1.998   9.776 -0.9061 -0.6684  0.0663
24825SOL     OW75915   1.380   6.441  11.340  0.0603 -0.3788 -0.2521
24825SOL    HW175916   1.310   6.506  11.346  1.7637  1.8012 -2.0640
24825SOL    HW275917   1.372   6.407  11.251  1.2671 -0.0547 -0.5099
24826SOL     OW75918   2.774   5.610  11.376  0.6856  0.1631 -0.9152
24826SOL    HW175919   2.840   5.569  11.320 -0.1763  0.0746 -1.9053
24826SOL    HW275920   2.727   5.670  11.317 -0.4179 -0.1149 -0.3480
24827SOL     OW75921   4.768   7.736   0.327 -0.4066 -0.0180 -0.2780
24827SOL    HW175922   4.725   7.767   0.247 -1.8867 -0.6061  0.2737
24827SOL    HW275923   4.762   7.641   0.323  1.3059 -0.1552 -0.4137
24828SOL     OW75924   0.730   1.161   5.115  0.1079  0.1472 -0.1395
24828SOL    HW175925   0.761   1.109   5.189 -0.3974 -0.0541 -0.0580
24828SOL    HW275926   0.800   1.156   5.050  1.2577  1.6722  0.9452
24829SOL     OW75927   4.224   5.399   8.453  0.2108 -0.5047  0.3086
24829SOL    HW175928   4.257   5.373   8.367 -0.0337  1.6084 -0.4799
24829SOL    HW275929   4.241   5.323   8.509 -0.2897 -2.2174 -1.7465
24830SOL     OW75930   0.336   3.664   5.244  0.0761 -0.1600  0.0747
24830SOL    HW175931   0.342   3.685   5.337  2.7699 -0.8449  0.1238
24830SOL    HW275932   0.263   3.602   5.239 -0.3311  0.1400  1.6571
24831SOL     OW75933   2.372   6.470   3.880  0.0954 -0.7434  0.0100
24831SOL    HW175934   2.345   6.542   3.937 -2.5545 -0.1416 -1.8516
24831SOL    HW275935   2.459   6.496   3.849 -0.3214  1.1357  0.2676
24832SOL     OW75936   6.931   0.940   9.518 -0.2205 -0.3286 -0.5221
24832SOL    HW175937   7.002   0.904   9.465  1.5103  1.0657  0.7091
24832SOL    HW275938   6.969   1.016   9.560 -2.5984  0.7001 -0.0641
24833SOL     OW75939   1.630   0.446   6.368  0.3241 -0.2017  0.3544
24833SOL    HW175940   1.571   0.520   6.380 -0.3821 -0.9403  1.5489
24833SOL    HW275941   1.659   0.454   6.277 -2.0878 -0.1728 -0.4782
24834SOL     OW75942   1.234   4.509   3.859 -0.1232 -0.6099 -0.1481
24834SOL    HW175943   1.144   4.483   3.838 -0.3751  0.7559 -0.9084
24834SOL    HW275944   1.236   4.513   3.955 -0.7725 -1.0025 -0.1141
24835SOL     OW75945   4.308   1.307   7.629 -0.3401 -0.1070  0.3739
24835SOL    HW175946   4.306   1.321   7.534  1.0527 -0.3714  0.2847
24835SOL    HW275947   4.310   1.212   7.638  1.6838 -0.0881  0.5642
24836SOL     OW75948   7.163   1.283   4.790 -0.5073 -0.5368 -0.0975
24836SOL    HW175949   7.117   1.199   4.796  0.5790 -1.1459 -0.0974
24836SOL    HW275950   7.231   1.278   4.857 -0.2941  0.2539 -0.2522
24837SOL     OW75951   3.217   0.250   8.434 -0.2408 -0.3522  0.0949
24837SOL    HW175952   3.264   0.167   8.433  1.8666  0.7171 -1.8774
24837SOL    HW275953   3.180   0.257   8.345 -0.2742  0.8539  0.1923
24838SOL     OW75954   3.050   2.508   5.456 -0.1767 -0.1057 -0.4346
24838SOL    HW175955   3.133   2.520   5.410 -0.6061  1.3386 -0.8956
24838SOL    HW275956   3.047   2.579   5.520 -1.7353  0.8756 -1.5189
24839SOL     OW75957   2.277   2.989   2.943  0.0967  0.7456 -0.2207
24839SOL    HW175958   2.215   2.935   2.894  1.5585 -0.7907 -0.4826
24839SOL    HW275959   2.359   2.939   2.941  0.9135  1.9073  1.5189
24840SOL     OW75960   7.560   2.578   1.453  0.0138  0.3144 -0.0573
24840SOL    HW175961   7.634   2.574   1.393  0.6531  1.4855  0.5963
24840SOL    HW275962   7.507   2.651   1.420  0.4916  1.1208  0.8771
24841SOL     OW75963   6.910   5.127   7.480  0.0882 -0.4552 -0.6182
24841SOL    HW175964   6.960   5.081   7.548 -2.3959 -1.3848  0.7245
24841SOL    HW275965   6.839   5.067   7.458 -1.4758  1.4659 -1.1140
24842SOL     OW75966   5.446   4.013   1.349  0.1437  0.0642  0.0010
24842SOL    HW175967   5.369   3.981   1.302 -0.5221 -1.9458  2.2644
24842SOL    HW275968   5.455   4.104   1.319 -2.4210  0.0315 -1.2069
24843SOL     OW75969   6.390   6.957   8.433 -0.0691  0.0285  0.1251
24843SOL    HW175970   6.444   6.880   8.421 -0.4072 -0.6283  2.3367
24843SOL    HW275971   6.449   7.031   8.419  0.0576 -0.5271 -2.8997
24844SOL     OW75972   7.253   0.775   3.713  0.1634 -0.1525 -0.4883
24844SOL    HW175973   7.242   0.682   3.694 -1.1177 -0.0968 -0.0955
24844SOL    HW275974   7.322   0.804   3.652 -0.0954 -1.1350 -1.2774
24845SOL     OW75975   1.017   6.503   0.322 -0.1469  0.3962  0.4309
24845SOL    HW175976   0.962   6.572   0.284  0.4144  0.2434 -0.7167
24845SOL    HW275977   1.030   6.530   0.413 -1.4577  0.8389  0.5048
24846SOL     OW75978   6.710   3.435   5.407  0.4487 -0.0022 -0.1406
24846SOL    HW175979   6.677   3.428   5.497 -1.4784 -0.5262 -0.8373
24846SOL    HW275980   6.675   3.518   5.376 -0.0653 -0.4790 -0.8461
24847SOL     OW75981   3.852   7.585   8.421 -0.3830  0.3883 -0.7281
24847SOL    HW175982   3.892   7.605   8.336  0.5795  0.7980 -0.1990
24847SOL    HW275983   3.904   7.513   8.455  1.1050  2.0551  0.7372
24848SOL     OW75984   2.159   5.310   9.407  0.4323  0.0697  0.0296
24848SOL    HW175985   2.198   5.259   9.336 -0.8445 -3.2775  1.5014
24848SOL    HW275986   2.216   5.294   9.482 -0.1263  0.6687  0.5923
24849SOL     OW75987   3.121   6.542   9.573 -0.3394 -0.2750  0.7754
24849SOL    HW175988   3.203   6.494   9.559 -1.2125 -1.3057 -1.2937
24849SOL    HW275989   3.094   6.568   9.485 -2.6474 -0.7230  1.2973
24850SOL     OW75990   2.742   7.103   8.709 -0.0914  0.3719 -0.2011
24850SOL    HW175991   2.755   7.037   8.777 -0.5130 -0.4157 -0.8675
24850SOL    HW275992   2.750   7.187   8.755  1.4701 -0.1081  0.4760
24851SOL     OW75993   2.924   4.176  11.691  0.4302  0.2847  1.1388
24851SOL    HW175994   2.851   4.118  11.668  1.3712 -0.2194 -0.7756
24851SOL    HW275995   3.002   4.129  11.662  1.4143  1.4820  1.7615
24852SOL     OW75996   5.931   0.608  10.931 -0.1638 -0.0307 -0.0586
24852SOL    HW175997   5.998   0.545  10.906 -0.2036  0.1473 -0.6199
24852SOL    HW275998   5.979   0.689  10.947 -0.2668  0.1762 -0.7484
24853SOL     OW75999   4.134   5.179   3.694 -0.5403 -0.3815 -0.2265
24853SOL    HW176000   4.160   5.106   3.638  0.7111  0.0102 -0.2097
24853SOL    HW276001   4.080   5.140   3.763 -3.8561 -0.6061 -2.7313
24854SOL     OW76002   5.765   5.177   8.182  0.2910  0.1192  0.0723
24854SOL    HW176003   5.807   5.131   8.254  0.6421 -1.0261 -0.8296
24854SOL    HW276004   5.688   5.125   8.161 -0.4826  1.1074  0.3996
24855SOL     OW76005   6.675   7.743  10.757 -0.0212 -0.5703  0.0269
24855SOL    HW176006   6.610   7.760  10.689 -0.5949 -1.7301  0.2639
24855SOL    HW276007   6.723   7.666  10.727  0.5599 -0.3464  0.3479
24856SOL     OW76008   1.441   0.290   6.476  0.3462 -0.4303  0.4837
24856SOL    HW176009   1.501   0.358   6.447  0.3509 -0.0344  1.3809
24856SOL    HW276010   1.463   0.214   6.424 -1.2740  0.8762 -2.3676
24857SOL     OW76011   4.964   4.978   7.532 -0.1838 -0.4639 -0.0895
24857SOL    HW176012   4.998   5.023   7.455  0.1178 -1.7953 -0.7777
24857SOL    HW276013   5.027   4.907   7.548 -0.1504 -0.1052  1.5001
24858SOL     OW76014   4.383   7.456   0.759 -0.1455 -0.3387  0.0026
24858SOL    HW176015   4.471   7.488   0.777  1.3706 -3.6276 -0.8744
24858SOL    HW276016   4.390   7.410   0.675 -2.1915 -2.4014  0.8480
24859SOL     OW76017   4.443   7.428   4.576  0.0174 -0.4269  0.2656
24859SOL    HW176018   4.454   7.508   4.525  1.1875 -0.7800 -0.0467
24859SOL    HW276019   4.387   7.372   4.522  1.0400 -0.6980 -0.5335
24860SOL     OW76020   4.098   4.585   3.851 -0.0452 -0.5885 -0.3464
24860SOL    HW176021   4.127   4.494   3.861  1.3864  0.0191  1.4940
24860SOL    HW276022   4.167   4.626   3.799 -1.1453 -0.7183 -1.9860
24861SOL     OW76023   7.193   4.110  10.983  0.4465 -0.1078 -0.0175
24861SOL    HW176024   7.121   4.147  11.034 -0.0652 -0.8959 -0.1515
24861SOL    HW276025   7.262   4.177  10.987 -0.2646  0.6323  0.1559
24862SOL     OW76026   4.664   3.646   4.042  0.2184 -0.6663 -0.7152
24862SOL    HW176027   4.642   3.614   3.955 -1.4779  1.9841 -1.3901
24862SOL    HW276028   4.582   3.642   4.091  1.5361 -3.9446  1.5352
24863SOL     OW76029   6.613   1.101   6.251  0.6842  0.6813 -0.2340
24863SOL    HW176030   6.708   1.111   6.256  0.8503 -0.7693 -0.1858
24863SOL    HW276031   6.582   1.129   6.337  1.2382 -0.3932  0.3429
24864SOL     OW76032   5.727   3.044   3.186  0.4316 -0.6951  0.5166
24864SOL    HW176033   5.808   3.087   3.215  0.6339 -0.7588  0.0697
24864SOL    HW276034   5.709   3.085   3.101 -0.1537 -0.4963  0.7330
24865SOL     OW76035   1.530   2.221  10.175 -0.1689  0.3450  0.2383
24865SOL    HW176036   1.617   2.224  10.136 -0.8275 -1.3589 -1.5607
24865SOL    HW276037   1.530   2.140  10.226 -0.5570  0.5629  0.5846
24866SOL     OW76038   7.375   1.757  12.020  0.2748 -0.1450 -0.0588
24866SOL    HW176039   7.342   1.706  11.946  0.6628  0.3113 -0.5571
24866SOL    HW276040   7.325   1.726  12.095  0.1045 -0.8476 -0.4547
24867SOL     OW76041   2.424   2.337   5.535 -0.1196 -0.4121 -0.3497
24867SOL    HW176042   2.397   2.338   5.627 -2.5759 -1.0506 -1.0046
24867SOL    HW276043   2.403   2.425   5.503  0.7244 -0.1932 -0.3364
24868SOL     OW76044   3.855   6.345  10.499  0.6415 -0.1017 -0.1003
24868SOL    HW176045   3.905   6.370  10.577 -0.2410  3.4193 -0.4793
24868SOL    HW276046   3.922   6.319  10.436  1.8740  1.9501  0.2578
24869SOL     OW76047   4.434   1.835   0.027  0.2723 -0.2015  0.1578
24869SOL    HW176048   4.376   1.886   0.084 -0.4999 -0.8904 -0.0122
24869SOL    HW276049   4.474   1.771   0.085  0.6688  0.0922  0.2187
24870SOL     OW76050   3.098   0.990   2.751  0.3063  0.2763  0.1788
24870SOL    HW176051   3.101   0.958   2.661  1.3617 -0.5057  0.4671
24870SOL    HW276052   3.104   1.085   2.743  0.1532  0.2266 -0.5895
24871SOL     OW76053   6.910   5.588   6.043  0.1817 -0.1596  0.2802
24871SOL    HW176054   6.847   5.526   6.078 -0.6417  0.5222  0.0583
24871SOL    HW276055   6.864   5.630   5.970  0.6025  0.9150  0.6079
24872SOL     OW76056   5.464   3.198  10.698 -0.2214  0.1377  0.4006
24872SOL    HW176057   5.521   3.228  10.627  1.8355 -2.0660  0.9772
24872SOL    HW276058   5.498   3.240  10.777 -1.0611  0.8121  0.4166
24873SOL     OW76059   6.054   5.921  12.104 -0.4403 -0.1330  0.3674
24873SOL    HW176060   6.068   5.901  12.012  1.7267  2.1787  0.0879
24873SOL    HW276061   5.972   5.971  12.106  0.1827  0.9629 -0.5304
24874SOL     OW76062   0.571   5.845  11.369  0.3341  0.2106 -0.3376
24874SOL    HW176063   0.638   5.891  11.318  0.4005 -0.5748 -0.9677
24874SOL    HW276064   0.523   5.915  11.414  0.1596  0.9454 -1.6252
24875SOL     OW76065   4.419   5.180   9.048  0.2273 -0.2189  0.6548
24875SOL    HW176066   4.476   5.257   9.058  1.8885 -1.2596 -0.2893
24875SOL    HW276067   4.354   5.207   8.984  0.6616  0.4758  0.4905
24876SOL     OW76068   3.636   6.920   9.996  0.7951  0.7421  0.0250
24876SOL    HW176069   3.683   6.877  10.068  0.8486  1.7096  0.5820
24876SOL    HW276070   3.550   6.942  10.033 -0.9121 -2.6654 -1.5174
24877SOL     OW76071   1.775   4.019   7.675  0.2766  0.8519  0.3321
24877SOL    HW176072   1.806   4.071   7.601  1.4447  1.9498  1.5431
24877SOL    HW276073   1.833   3.943   7.676 -0.4676  0.2455 -0.5266
24878SOL     OW76074   4.800   5.195  10.743  0.5413  0.0583  0.0417
24878SOL    HW176075   4.726   5.168  10.687  1.1963  2.0655 -1.9602
24878SOL    HW276076   4.856   5.117  10.748  0.2338 -0.3296 -1.7945
24879SOL     OW76077   0.927   3.906   0.366 -0.1191 -0.1562 -0.0254
24879SOL    HW176078   0.878   3.865   0.438 -1.3642  0.1172 -0.7056
24879SOL    HW276079   0.865   3.966   0.325  0.6921 -0.0242 -1.0983
24880SOL     OW76080   4.412   0.244   7.879 -0.2462  0.1439  0.0357
24880SOL    HW176081   4.448   0.159   7.902 -1.7152 -0.5251 -0.0206
24880SOL    HW276082   4.416   0.295   7.959  2.5077  0.7566 -0.4081
24881SOL     OW76083   3.180   2.203   8.029 -0.1524 -0.1395 -0.0389
24881SOL    HW176084   3.132   2.284   8.049 -1.0802 -0.0175 -2.4643
24881SOL    HW276085   3.240   2.227   7.959  1.2051 -1.0860  0.7408
24882SOL     OW76086   6.937   6.275   2.998 -0.0711  0.1294  0.0369
24882SOL    HW176087   6.984   6.353   3.024 -1.1753  0.5410  0.8710
24882SOL    HW276088   6.860   6.307   2.950  0.5363 -0.5318 -1.4646
24883SOL     OW76089   5.930   2.709   3.595  0.3225 -0.4320  0.6963
24883SOL    HW176090   5.983   2.687   3.672  0.8808 -0.6279  0.2631
24883SOL    HW276091   5.990   2.758   3.539 -0.0839 -0.2890  0.3849
24884SOL     OW76092   3.921   2.211   9.766  0.0309  0.1400  0.2002
24884SOL    HW176093   3.972   2.172   9.695  0.0671 -0.5612  0.6054
24884SOL    HW276094   3.965   2.294   9.783 -0.8353  1.0203 -1.5606
24885SOL     OW76095   3.199   0.152   0.614  0.1421 -0.2517  0.4981
24885SOL    HW176096   3.134   0.085   0.634  0.2179 -0.6149 -0.4580
24885SOL    HW276097   3.284   0.108   0.626  0.2041 -0.8475 -1.6953
24886SOL     OW76098   2.458   3.475   9.190  0.0565 -0.2077 -0.2137
24886SOL    HW176099   2.551   3.468   9.169 -0.0731  0.8056 -1.2434
24886SOL    HW276100   2.456   3.512   9.278  0.6286 -0.2669 -0.1701
24887SOL     OW76101   6.789   5.417   3.129  0.3947  0.4021  0.5020
24887SOL    HW176102   6.769   5.333   3.170  0.6735  0.1220  0.0691
24887SOL    HW276103   6.784   5.480   3.201  0.1425  0.0244  0.8224
24888SOL     OW76104   0.516   3.601   6.740 -0.0675 -0.0066  0.4015
24888SOL    HW176105   0.462   3.525   6.762 -1.3219  0.9462  0.7618
24888SOL    HW276106   0.555   3.579   6.655 -3.4050  0.3923 -1.4201
24889SOL     OW76107   7.335   1.806   8.658 -0.2561  0.5623 -0.3848
24889SOL    HW176108   7.272   1.878   8.668  0.7425  1.5482 -0.9250
24889SOL    HW276109   7.288   1.729   8.689 -1.6444  1.3037 -0.5309
24890SOL     OW76110   5.574   7.745   9.235 -0.2863 -0.4115  0.1425
24890SOL    HW176111   5.594   7.797   9.313  2.2483 -1.0098 -0.0490
24890SOL    HW276112   5.550   7.659   9.269  0.1635 -0.4827  0.2779
24891SOL     OW76113   4.988   3.583   7.255  0.0219 -0.1913  0.3272
24891SOL    HW176114   4.925   3.655   7.244 -0.1533 -0.3838  0.0409
24891SOL    HW276115   4.940   3.505   7.227  1.4551  0.0878 -3.5417
24892SOL     OW76116   0.519   1.046   9.025  0.6675 -0.4975 -0.3983
24892SOL    HW176117   0.585   1.100   8.981  1.3982 -0.2518  0.9487
24892SOL    HW276118   0.528   0.960   8.984  2.5604 -0.7518  0.4409
24893SOL     OW76119   0.987   2.342  11.527  0.6542 -0.2496  0.1514
24893SOL    HW176120   1.040   2.413  11.563  1.0182 -0.8545  0.8351
24893SOL    HW276121   1.037   2.312  11.451  1.5127 -1.0762  1.0212
24894SOL     OW76122   0.519   6.463  12.071 -0.2854 -0.3593 -0.8135
24894SOL    HW176123   0.515   6.486  12.163  1.6895  0.3424 -0.8700
24894SOL    HW276124   0.448   6.514  12.031 -0.7921 -0.2338  0.2140
24895SOL     OW76125   0.006   0.767   2.848  0.0928  0.6717  0.3496
24895SOL    HW176126   0.090   0.753   2.891  0.8433 -0.0168 -1.2504
24895SOL    HW276127  -0.038   0.682   2.851  1.3522 -0.2123 -2.5789
24896SOL     OW76128   3.514   3.859   5.803  0.0244  0.3042  0.6756
24896SOL    HW176129   3.506   3.795   5.732 -0.2989  1.2627 -0.1706
24896SOL    HW276130   3.594   3.907   5.782 -0.0611  0.5737  0.9707
24897SOL     OW76131   2.489   4.828   5.062  0.1162 -0.8749 -0.1399
24897SOL    HW176132   2.540   4.908   5.077 -2.2791  0.6812  0.1055
24897SOL    HW276133   2.538   4.760   5.108  1.5930  0.6631  0.6673
24898SOL     OW76134   4.353   2.409  11.748 -0.7485  0.5506  0.3453
24898SOL    HW176135   4.336   2.452  11.831 -0.3509  0.5974  0.3997
24898SOL    HW276136   4.350   2.480  11.683 -0.1495  0.6506  0.4286
24899SOL     OW76137   5.043   0.018   2.477 -0.0959  0.0079 -0.1099
24899SOL    HW176138   5.060   0.032   2.384 -0.4969  1.9402  0.0635
24899SOL    HW276139   5.096   0.085   2.521 -2.0951  1.0215  0.8672
24900SOL     OW76140   0.724   5.884   5.396 -0.2930 -0.5791  0.3626
24900SOL    HW176141   0.692   5.974   5.388  1.7292  0.0949 -1.0113
24900SOL    HW276142   0.664   5.842   5.457 -2.0972  1.3153 -0.0081
24901SOL     OW76143   5.402   3.000  11.430  0.0187  0.1425  0.8365
24901SOL    HW176144   5.450   3.035  11.355 -0.2623 -1.0286  0.0905
24901SOL    HW276145   5.344   3.071  11.457  0.2811  0.6439  0.0851
24902SOL     OW76146   5.402   0.750   9.857  0.0477  0.0662 -0.1742
24902SOL    HW176147   5.329   0.711   9.808  0.9883 -0.0344 -1.5693
24902SOL    HW276148   5.385   0.726   9.948 -0.6866 -1.5535 -0.6835
24903SOL     OW76149   7.161   0.833   2.561 -0.1491  0.4148  0.3176
24903SOL    HW176150   7.073   0.861   2.588 -0.9741 -2.0658  0.3734
24903SOL    HW276151   7.178   0.883   2.482 -2.1237  0.1100 -0.3568
24904SOL     OW76152   7.306   2.561  11.325  0.1360  0.2595  0.4255
24904SOL    HW176153   7.237   2.582  11.387 -0.8287 -0.0109 -0.5138
24904SOL    HW276154   7.278   2.478  11.285 -0.3109  1.4026 -1.7802
24905SOL     OW76155   4.489   5.162   0.754  0.1261 -0.2382 -0.4581
24905SOL    HW176156   4.525   5.075   0.774 -0.5536 -0.0542  1.7776
24905SOL    HW276157   4.493   5.209   0.836 -2.9482  0.6185 -0.6813
24906SOL     OW76158   5.242   1.233   1.933 -0.7405 -0.6050  0.2914
24906SOL    HW176159   5.319   1.215   1.880  0.1394  0.9991  0.9525
24906SOL    HW276160   5.181   1.276   1.873 -0.7935 -1.1111 -0.0234
24907SOL     OW76161   1.093   7.045  11.709 -0.6260 -0.9408  0.7434
24907SOL    HW176162   1.107   6.960  11.668  1.9863 -0.0743 -0.3764
24907SOL    HW276163   1.084   7.106  11.635 -0.7780 -0.0176  1.5083
24908SOL     OW76164   2.602   6.665   9.984 -0.0837 -0.3355 -0.2643
24908SOL    HW176165   2.664   6.661  10.057 -0.5257  0.6080  0.1753
24908SOL    HW276166   2.575   6.574   9.971 -0.2292 -0.4884  0.9537
24909SOL     OW76167   5.945   5.173   4.817  0.1369 -0.2402  0.7718
24909SOL    HW176168   5.870   5.115   4.831  0.4753 -0.2386  2.9385
24909SOL    HW276169   5.955   5.220   4.900  1.7903  0.6602  0.1172
24910SOL     OW76170   5.334   5.170   0.882  0.0218  0.3788 -0.0145
24910SOL    HW176171   5.332   5.076   0.864 -1.9704  0.4031 -0.1213
24910SOL    HW276172   5.246   5.201   0.860  0.5680  2.2474  0.2083
24911SOL     OW76173   0.459   2.267   4.238 -0.0787 -0.7314 -0.3226
24911SOL    HW176174   0.417   2.229   4.316 -3.3384  0.4481 -1.3447
24911SOL    HW276175   0.402   2.339   4.213  1.4757 -0.3543 -3.1845
24912SOL     OW76176   7.891   7.853   3.266 -1.1300  0.1632 -0.3710
24912SOL    HW176177   7.914   7.874   3.176 -0.2173  1.5928  0.1713
24912SOL    HW276178   7.797   7.873   3.272 -1.2636 -0.2299 -1.0682
24913SOL     OW76179   1.472   0.201   5.136  0.1497 -0.9600 -0.3148
24913SOL    HW176180   1.547   0.160   5.180  0.7484  1.4895  1.1129
24913SOL    HW276181   1.404   0.134   5.137  0.9576 -1.8643  2.1524
24914SOL     OW76182   0.400   2.332   1.872 -0.3835 -0.6203  0.2238
24914SOL    HW176183   0.346   2.329   1.951 -1.7159  1.0842 -0.5726
24914SOL    HW276184   0.380   2.416   1.832  0.3779 -1.3713 -1.8584
24915SOL     OW76185   6.618   3.769   0.861  0.0610 -0.0971  0.0564
24915SOL    HW176186   6.647   3.677   0.858  0.4114 -0.1680  2.9585
24915SOL    HW276187   6.527   3.766   0.833 -0.4089 -1.6075  1.5594
24916SOL     OW76188   6.234   0.483   8.873  0.0305  0.0118 -0.0625
24916SOL    HW176189   6.295   0.431   8.924 -1.8622  0.3669  2.7894
24916SOL    HW276190   6.256   0.574   8.893 -0.2897  0.1839 -0.4687
24917SOL     OW76191   5.523   7.629   4.944 -0.0082  0.0522 -0.2775
24917SOL    HW176192   5.591   7.696   4.954 -0.5058  0.6247 -0.6725
24917SOL    HW276193   5.502   7.603   5.033 -0.9584  1.6071 -0.0122
24918SOL     OW76194   3.690   5.708   6.732 -0.1283 -0.0045 -0.0539
24918SOL    HW176195   3.640   5.786   6.757  1.1623  0.5024  1.1311
24918SOL    HW276196   3.626   5.650   6.692 -1.5027  0.9311  0.6857
24919SOL     OW76197   2.001   7.552   1.748  0.3168  0.5175 -0.6311
24919SOL    HW176198   1.970   7.564   1.838  1.7363  0.1964 -0.0809
24919SOL    HW276199   1.921   7.551   1.696 -0.4781  2.0503  0.4644
24920SOL     OW76200   5.499   5.065   8.141  0.0977 -0.7068  0.0356
24920SOL    HW176201   5.511   5.066   8.046  0.0722 -1.2840  0.0219
24920SOL    HW276202   5.545   4.986   8.170  0.4150 -0.3363  0.5475
24921SOL     OW76203   7.621   4.815   5.867  0.0076  0.3511  0.3376
24921SOL    HW176204   7.671   4.793   5.788  0.2360 -0.5187  0.7150
24921SOL    HW276205   7.687   4.845   5.929 -0.1186  0.5785  0.3647
24922SOL     OW76206   3.525   3.436   3.686  0.2425 -0.2034 -0.0138
24922SOL    HW176207   3.547   3.431   3.593 -1.6551  0.9800 -0.5912
24922SOL    HW276208   3.547   3.526   3.710 -0.2889 -0.1782  0.3859
24923SOL     OW76209   7.876   7.518  11.254 -0.1872 -0.2493 -0.2735
24923SOL    HW176210   7.903   7.586  11.192 -1.6254 -0.0249 -0.7021
24923SOL    HW276211   7.846   7.566  11.331  0.7953 -0.4967  0.2723
24924SOL     OW76212   3.190   0.006   0.293  0.3760 -0.2888 -0.1075
24924SOL    HW176213   3.179   0.013   0.388 -2.0852  0.3755 -0.3828
24924SOL    HW276214   3.104  -0.021   0.260  0.8343  0.6337 -2.2605
24925SOL     OW76215   3.166   4.262   2.540  0.2209 -0.1073 -0.4502
24925SOL    HW176216   3.173   4.167   2.531 -1.7654 -0.2585 -0.8743
24925SOL    HW276217   3.125   4.275   2.625  3.3809  0.5843  1.1165
24926SOL     OW76218   1.002   4.643   5.141 -0.1163 -0.2095  0.0691
24926SOL    HW176219   1.003   4.725   5.190  3.0220  0.6685 -1.2147
24926SOL    HW276220   0.986   4.669   5.050  1.3641 -0.9153 -0.4298
24927SOL     OW76221   3.031   6.250   3.303  0.2103 -0.0368  0.8641
24927SOL    HW176222   3.037   6.345   3.287  0.7257 -0.1205  0.5438
24927SOL    HW276223   2.967   6.220   3.239  1.0101 -0.1005  0.0704
24928SOL     OW76224   1.291   6.405   8.664  0.1818 -0.0620 -0.3172
24928SOL    HW176225   1.317   6.495   8.679 -1.9374  0.5968 -0.1566
24928SOL    HW276226   1.310   6.389   8.571 -1.3253  1.3112 -0.9230
24929SOL     OW76227   0.162   4.652   9.222  0.1012  0.1817  0.1879
24929SOL    HW176228   0.140   4.560   9.204  0.6885 -0.5686  2.8218
24929SOL    HW276229   0.104   4.702   9.164 -0.1733 -1.8143 -1.3900
24930SOL     OW76230   5.901   7.368   5.020  0.0602 -0.1095 -0.0679
24930SOL    HW176231   5.948   7.363   5.104  1.1262 -0.5682 -0.6756
24930SOL    HW276232   5.820   7.320   5.035 -0.5724  1.2884  1.2168
24931SOL     OW76233   4.687   4.947  11.951  0.8257  0.0353 -0.2243
24931SOL    HW176234   4.605   4.969  11.908 -0.1225  1.1110  1.9606
24931SOL    HW276235   4.715   4.865  11.909 -1.3728 -0.3800 -1.0197
24932SOL     OW76236   0.992   5.171   6.943  0.0643 -0.3789 -0.4289
24932SOL    HW176237   1.040   5.231   6.887  1.1790  0.2875  1.1713
24932SOL    HW276238   1.039   5.088   6.934  0.4991 -0.1653 -0.1701
24933SOL     OW76239   0.140   2.558   8.995 -0.5823  0.6811 -0.5859
24933SOL    HW176240   0.060   2.593   8.955 -0.3950  1.1617 -0.5530
24933SOL    HW276241   0.111   2.481   9.043 -1.2926  1.6339  0.6032
24934SOL     OW76242   5.077   4.779  10.889 -0.1343  0.1138  0.0868
24934SOL    HW176243   5.165   4.765  10.925  0.0644 -3.4684 -1.4127
24934SOL    HW276244   5.018   4.746  10.957 -0.0226 -1.4679 -0.5306
24935SOL     OW76245   7.752   1.908   8.540  0.5888  0.2079 -0.8385
24935SOL    HW176246   7.804   1.836   8.576 -0.8149 -0.0541  0.7679
24935SOL    HW276247   7.669   1.905   8.588  0.2134  2.4506 -1.2248
24936SOL     OW76248   2.456   6.456   0.332  0.8661 -0.3256 -0.0554
24936SOL    HW176249   2.456   6.541   0.377  0.1914 -0.5254  0.3375
24936SOL    HW276250   2.470   6.478   0.240  0.7559  0.2071  0.0506
24937SOL     OW76251   4.798   2.668  11.377  0.0412  0.2738 -0.1405
24937SOL    HW176252   4.771   2.582  11.410  1.3043 -1.6209 -3.5929
24937SOL    HW276253   4.880   2.686  11.422 -0.3024 -0.2461  0.7180
24938SOL     OW76254   6.692   4.816   9.572  0.6309  0.0063 -0.5830
24938SOL    HW176255   6.625   4.753   9.545  1.4054 -1.1744  0.1376
24938SOL    HW276256   6.770   4.763   9.587  1.4335  1.2061 -0.3483
24939SOL     OW76257   4.172   5.065   0.999  0.1865  0.6699 -0.3546
24939SOL    HW176258   4.111   4.995   0.978  0.5977  0.2476 -0.1451
24939SOL    HW276259   4.252   5.021   1.027 -0.1760  1.1794  1.7032
24940SOL     OW76260   1.658   5.372  12.228 -0.2705 -0.3197  0.1221
24940SOL    HW176261   1.748   5.340  12.223 -0.1495  0.1697 -0.9843
24940SOL    HW276262   1.627   5.343  12.314  1.0375 -0.2343  0.6425
24941SOL     OW76263   1.812   4.938   8.301  0.1825  0.5047 -1.1444
24941SOL    HW176264   1.751   4.963   8.370  0.2764 -0.0724 -0.8424
24941SOL    HW276265   1.767   4.960   8.219 -0.0622  0.8984 -0.9052
24942SOL     OW76266   3.454   2.764   2.296  0.3300 -0.0197 -0.8039
24942SOL    HW176267   3.391   2.810   2.351  1.5833  1.3786 -0.4632
24942SOL    HW276268   3.439   2.671   2.314 -1.4657  0.2869 -0.5994
24943SOL     OW76269   0.860   4.468   6.884 -0.5394 -0.1656 -0.2128
24943SOL    HW176270   0.800   4.428   6.948  0.3991  0.4461  1.0899
24943SOL    HW276271   0.939   4.414   6.888 -0.6484 -0.4125 -1.2345
24944SOL     OW76272   6.079   4.764   2.281  0.0647  0.1096 -0.1864
24944SOL    HW176273   6.044   4.678   2.257  0.6829 -0.4294  0.7761
24944SOL    HW276274   6.002   4.816   2.304 -0.1404 -1.5415  3.5108
24945SOL     OW76275   6.663   2.127   6.163  0.4522  0.2278  0.0712
24945SOL    HW176276   6.577   2.106   6.200  0.3193 -1.1468 -0.9462
24945SOL    HW276277   6.688   2.209   6.206 -1.8628  1.3009 -0.4577
24946SOL     OW76278   7.731   7.095   1.885 -0.3790 -0.3405 -0.1902
24946SOL    HW176279   7.790   7.036   1.932 -0.4918  0.1540  0.5889
24946SOL    HW276280   7.761   7.183   1.909 -2.1853 -0.0640  1.2001
24947SOL     OW76281   0.221   3.716   2.543 -0.0689 -0.1627 -0.0079
24947SOL    HW176282   0.165   3.660   2.596  0.0328  0.0649  0.3494
24947SOL    HW276283   0.309   3.678   2.552  0.1522  0.5276  0.9245
24948SOL     OW76284   7.164   1.842   9.745 -0.3447 -0.5078  0.2143
24948SOL    HW176285   7.166   1.931   9.780 -0.9855 -0.2621 -0.3628
24948SOL    HW276286   7.144   1.787   9.821 -2.0054  0.0470  0.2156
24949SOL     OW76287   7.518   0.337   3.679  0.2211 -0.1424 -0.2013
24949SOL    HW176288   7.516   0.405   3.612  2.8753  1.7196  1.3861
24949SOL    HW276289   7.569   0.266   3.640  2.3606  1.2142 -0.0655
24950SOL     OW76290   2.713   6.907   4.739  0.6126  0.1450 -0.2992
24950SOL    HW176291   2.696   6.968   4.668 -1.1883  0.7127  0.5707
24950SOL    HW276292   2.716   6.961   4.818  1.7779 -0.5712  0.1845
24951SOL     OW76293   4.431   2.378   3.360 -0.3721 -0.0992 -0.1186
24951SOL    HW176294   4.481   2.347   3.436 -1.6616  0.8011  1.1537
24951SOL    HW276295   4.404   2.466   3.383 -3.0131 -0.7374 -0.4598
24952SOL     OW76296   1.521   0.110  12.410 -0.2172 -0.3751 -0.4185
24952SOL    HW176297   1.431   0.116  12.377 -0.0626 -1.2096 -1.0196
24952SOL    HW276298   1.540   0.197  12.445 -0.6789  0.2944 -1.7875
24953SOL     OW76299   6.154   0.886  11.013  0.1494 -0.3214 -0.6409
24953SOL    HW176300   6.238   0.864  10.971  0.6743 -0.3069  0.3804
24953SOL    HW276301   6.168   0.973  11.051  0.0279 -0.7594  0.4444
24954SOL     OW76302   5.707   6.518  11.264 -0.0827 -0.1955  0.3999
24954SOL    HW176303   5.642   6.449  11.279  0.0829 -0.3675  0.3217
24954SOL    HW276304   5.756   6.488  11.188  0.9363 -0.6906  1.2286
24955SOL     OW76305   3.260   5.362   3.864  0.2969 -0.1729  0.5369
24955SOL    HW176306   3.316   5.345   3.939  1.7716 -1.2772 -0.7613
24955SOL    HW276307   3.171   5.362   3.900  1.0530  1.2857  2.5807
24956SOL     OW76308   0.819   6.345   1.981 -0.3509  0.4833  0.4683
24956SOL    HW176309   0.857   6.357   2.068  1.4898 -0.4423 -0.1453
24956SOL    HW276310   0.882   6.289   1.935 -0.7606  1.7450 -1.7837
24957SOL     OW76311   4.614   3.545   3.789 -0.2721 -0.1054 -0.1698
24957SOL    HW176312   4.599   3.473   3.727  0.3381 -0.6487  0.2851
24957SOL    HW276313   4.581   3.623   3.745  0.8492 -0.3472 -1.5169
24958SOL     OW76314   4.800   6.972   6.125  0.0644  0.2097 -0.4492
24958SOL    HW176315   4.817   7.062   6.097  0.2911 -0.2103 -1.7536
24958SOL    HW276316   4.833   6.918   6.053  0.3365 -0.9430  0.5015
24959SOL     OW76317   3.469   7.794   4.733  0.3156 -0.5309  0.3082
24959SOL    HW176318   3.496   7.713   4.775  1.8744 -0.3494 -0.2831
24959SOL    HW276319   3.380   7.810   4.766 -0.3379 -2.8645 -0.1555
24960SOL     OW76320   4.102   6.605   5.340  0.2638 -0.7532  0.4360
24960SOL    HW176321   4.177   6.571   5.292  0.1841 -1.7007  0.9507
24960SOL    HW276322   4.071   6.531   5.391 -0.2104 -0.0095  1.2558
24961SOL     OW76323   4.969   4.708   7.939  0.1666 -0.2393  0.5742
24961SOL    HW176324   5.062   4.685   7.947  0.3679  0.6256  0.8750
24961SOL    HW276325   4.950   4.701   7.845  0.7615  0.3904  0.3996
24962SOL     OW76326   0.401   0.893   6.621 -0.1631  0.5440 -0.7347
24962SOL    HW176327   0.413   0.936   6.537  0.3518  5.0180  1.3143
24962SOL    HW276328   0.487   0.855   6.641 -0.5855 -1.5736 -2.5464
24963SOL     OW76329   2.054   1.247   1.321  1.1539 -0.6104  0.5237
24963SOL    HW176330   2.071   1.223   1.412  0.1072  0.3537  0.9948
24963SOL    HW276331   1.963   1.223   1.306  1.7090 -2.1032 -0.7514
24964SOL     OW76332   2.417   3.886  10.821  0.3286 -0.1948 -0.0695
24964SOL    HW176333   2.477   3.848  10.885  0.5394  0.7885  0.3455
24964SOL    HW276334   2.447   3.977  10.812 -0.4470  0.0119 -0.6516
24965SOL     OW76335   7.882   3.003   7.450 -0.0641 -0.0128  0.5929
24965SOL    HW176336   7.805   3.010   7.506  1.2106  1.2051  2.3107
24965SOL    HW276337   7.917   2.915   7.469 -1.2333 -0.7579 -0.5495
24966SOL     OW76338   6.033   4.596  11.175  0.2807  0.0765  0.2226
24966SOL    HW176339   6.124   4.571  11.161  1.6402  3.0510  2.6710
24966SOL    HW276340   6.018   4.667  11.112 -0.2734 -0.2172  0.0141
24967SOL     OW76341   3.211   2.074   1.447  0.2630 -0.6948  0.4918
24967SOL    HW176342   3.224   1.980   1.462  0.7550 -0.6546  0.3256
24967SOL    HW276343   3.282   2.116   1.495  0.4074 -0.4411  0.0585
24968SOL     OW76344   6.721   6.116  10.884 -0.4896  0.1198  0.4850
24968SOL    HW176345   6.784   6.181  10.855 -1.7588  1.8812  1.4774
24968SOL    HW276346   6.645   6.167  10.911 -2.2512 -1.8737 -0.3704
24969SOL     OW76347   0.581   7.393   6.574 -0.2117 -0.0436 -0.1427
24969SOL    HW176348   0.601   7.469   6.519  1.5018 -1.2597 -1.3004
24969SOL    HW276349   0.514   7.346   6.524  0.3255 -0.4143 -0.5293
24970SOL     OW76350   1.299   1.591  10.398  0.1336 -0.4341 -0.1951
24970SOL    HW176351   1.312   1.522  10.462 -0.0110 -1.2274 -0.9930
24970SOL    HW276352   1.204   1.600  10.391  0.0909  2.2209  2.3481
24971SOL     OW76353   1.201   1.657   7.920 -0.0987 -0.3059  0.5421
24971SOL    HW176354   1.253   1.723   7.873 -2.2998  1.0797 -0.0712
24971SOL    HW276355   1.148   1.615   7.852 -1.6764  0.1332  1.4584
24972SOL     OW76356   1.644   3.516   5.196 -0.1865 -0.2212  0.4545
24972SOL    HW176357   1.705   3.573   5.149 -1.3235 -0.6170 -1.6210
24972SOL    HW276358   1.667   3.428   5.168 -1.7360 -0.3712 -0.4627
24973SOL     OW76359   2.380   4.575  12.339 -0.2223  0.0807 -0.0557
24973SOL    HW176360   2.334   4.636  12.396 -0.3842  0.2095 -0.3197
24973SOL    HW276361   2.454   4.543  12.391  0.5343  1.3707 -0.2879
24974SOL     OW76362   0.174   7.557   6.841  0.5138 -0.3816  0.4113
24974SOL    HW176363   0.247   7.615   6.863  0.6897 -0.3004 -0.3587
24974SOL    HW276364   0.154   7.512   6.923  1.0515  0.0167  0.7691
24975SOL     OW76365   6.294   6.873   3.764  0.9311  0.6943  0.3082
24975SOL    HW176366   6.284   6.836   3.676 -0.8820  1.9481 -0.0622
24975SOL    HW276367   6.234   6.823   3.819 -0.6705  2.2251  0.0381
24976SOL     OW76368   0.501   7.307   9.794 -0.2709 -0.0975 -0.4814
24976SOL    HW176369   0.524   7.216   9.810 -1.2429 -0.1821  0.5757
24976SOL    HW276370   0.418   7.320   9.840  0.8623  1.8846  1.2167
24977SOL     OW76371   3.119   6.411   3.030  0.3179  0.5741 -0.0170
24977SOL    HW176372   3.208   6.433   3.056  1.1382 -1.5549 -0.8184
24977SOL    HW276373   3.120   6.412   2.935 -0.9896  2.1374 -0.0570
24978SOL     OW76374   6.829   4.501   7.026 -0.1535  0.1730  0.0256
24978SOL    HW176375   6.867   4.460   6.948  0.8089  0.3406  0.3934
24978SOL    HW276376   6.852   4.442   7.097 -0.8520  0.1288  0.2167
24979SOL     OW76377   3.463   0.256   8.154  0.0109  0.1216  0.0415
24979SOL    HW176378   3.372   0.251   8.181 -0.1830  1.2111 -0.3632
24979SOL    HW276379   3.469   0.200   8.077 -0.5654  0.8581 -0.5517
24980SOL     OW76380   0.313   3.335   5.915  0.4267 -0.9325  0.0155
24980SOL    HW176381   0.275   3.296   5.994 -0.5800  0.9605  0.5314
24980SOL    HW276382   0.395   3.374   5.944 -0.0761  0.0064  0.2364
24981SOL     OW76383   0.796   7.121  11.673  1.0524  0.7787 -0.1810
24981SOL    HW176384   0.844   7.125  11.756  0.3979  0.8995  0.2076
24981SOL    HW276385   0.788   7.213  11.646  1.7063  0.6990 -0.6403
24982SOL     OW76386   3.559   2.104   0.300 -0.2613  0.1721  0.2628
24982SOL    HW176387   3.488   2.148   0.253 -1.5399 -2.1107 -0.0428
24982SOL    HW276388   3.601   2.049   0.233  1.0324  0.5691  0.7267
24983SOL     OW76389   7.689   0.488   5.932 -0.5323  0.4375  0.3488
24983SOL    HW176390   7.722   0.464   5.846  0.4216  2.5882  0.0702
24983SOL    HW276391   7.631   0.416   5.956 -0.4513 -0.4311 -1.8644
24984SOL     OW76392   6.700   6.342   6.109  0.1218  0.3124 -0.1930
24984SOL    HW176393   6.643   6.363   6.182  1.6623  1.5362  0.7344
24984SOL    HW276394   6.645   6.352   6.031 -1.1578  0.4657  0.7128
24985SOL     OW76395   1.914   1.500  11.369 -0.4302 -0.0172  0.3085
24985SOL    HW176396   1.999   1.488  11.326 -0.8427  0.6444 -0.7078
24985SOL    HW276397   1.932   1.561  11.441  0.1803 -0.8087  0.8485
24986SOL     OW76398   5.717   6.304   4.017  0.0667  0.1312 -0.0079
24986SOL    HW176399   5.752   6.393   4.022  0.4850  0.2615 -3.0077
24986SOL    HW276400   5.791   6.251   3.987 -0.6222 -0.8884  0.0423
24987SOL     OW76401   4.338   6.116  11.390 -0.1681 -0.1658 -0.5780
24987SOL    HW176402   4.320   6.023  11.375  0.5954 -0.1865 -1.4974
24987SOL    HW276403   4.273   6.162  11.337  0.2393 -0.1988 -1.1156
24988SOL     OW76404   2.819   3.268   0.487 -0.4279  0.1621 -0.0054
24988SOL    HW176405   2.744   3.314   0.449 -0.5158  1.5822  1.7469
24988SOL    HW276406   2.782   3.192   0.531 -0.7279  0.3067 -0.0086
24989SOL     OW76407   5.615   2.333   3.249  0.2245  0.0902 -0.3042
24989SOL    HW176408   5.525   2.363   3.258  0.7300  1.2028  1.5253
24989SOL    HW276409   5.652   2.387   3.179 -0.1406  0.5795 -0.1176
24990SOL     OW76410   7.564   7.492  10.963  0.4981  0.4770 -0.1025
24990SOL    HW176411   7.632   7.559  10.950 -0.4039  1.4234 -0.0409
24990SOL    HW276412   7.497   7.513  10.899  0.5963 -0.9323 -0.6913
24991SOL     OW76413   7.567   4.073   1.156  0.1086  0.2028 -0.0013
24991SOL    HW176414   7.515   4.047   1.080 -0.5272 -0.7162  0.7310
24991SOL    HW276415   7.632   4.004   1.165  0.9947  0.9443 -0.4310
24992SOL     OW76416   0.496   3.146  11.655 -0.1136  0.2192  0.1838
24992SOL    HW176417   0.521   3.094  11.578 -1.6295 -2.0284  1.1159
24992SOL    HW276418   0.516   3.236  11.629  1.3421 -0.6290 -2.0518
24993SOL     OW76419   5.636   1.779   7.426 -0.2287 -0.0797  0.1146
24993SOL    HW176420   5.659   1.752   7.338 -0.2310 -2.5302  0.7980
24993SOL    HW276421   5.707   1.839   7.452  0.8217 -0.8727 -0.8321
24994SOL     OW76422   5.338   7.468  11.944  0.0701 -0.6684  0.0592
24994SOL    HW176423   5.297   7.383  11.931 -0.6870 -0.4472  0.8778
24994SOL    HW276424   5.318   7.490  12.035  1.0758 -0.0482  0.1466
24995SOL     OW76425   6.996   4.517   5.698  0.3064 -0.4017 -0.1545
24995SOL    HW176426   7.016   4.602   5.660  1.2762 -1.4455 -2.1289
24995SOL    HW276427   7.076   4.490   5.742  0.5221 -0.9159 -0.8326
24996SOL     OW76428   3.971   6.112  11.574  1.0573  0.1870 -0.0551
24996SOL    HW176429   4.020   6.048  11.523  0.8966 -0.3886  0.4852
24996SOL    HW276430   3.880   6.083  11.567  0.9849  0.3478  0.2087
24997SOL     OW76431   7.187   5.623   3.751  0.0405  0.0054  0.4346
24997SOL    HW176432   7.240   5.689   3.706  2.1496 -0.1534  2.4807
24997SOL    HW276433   7.129   5.674   3.807  1.3666  0.1951  1.6911
24998SOL     OW76434   0.693   7.309   0.293  0.1597 -0.4293  0.3287
24998SOL    HW176435   0.737   7.368   0.355  0.4896 -1.7346  1.3792
24998SOL    HW276436   0.751   7.234   0.285 -1.6060 -2.0087  1.4061
24999SOL     OW76437   7.371   6.269  10.796 -0.3222  0.1091 -0.3152
24999SOL    HW176438   7.431   6.342  10.811  0.0208 -0.0591 -0.8123
24999SOL    HW276439   7.310   6.301  10.730  1.1587 -0.7283 -2.2274
25000SOL     OW76440   2.133   6.637   5.125 -0.1710  0.1809  0.4172
25000SOL    HW176441   2.101   6.684   5.048  0.0293  0.7646  0.6887
25000SOL    HW276442   2.126   6.700   5.196 -3.0702 -1.1964  1.5246
25001SOL     OW76443   1.382   5.629   0.607  0.4064 -0.2921  0.5579
25001SOL    HW176444   1.321   5.562   0.637 -0.2815  0.1006  0.0634
25001SOL    HW276445   1.362   5.706   0.660 -1.0388  0.5061 -1.0682
25002SOL     OW76446   2.312   6.325  10.422 -0.7473 -0.1567  0.2565
25002SOL    HW176447   2.382   6.371  10.376 -2.3632  1.5812 -0.6178
25002SOL    HW276448   2.253   6.294  10.353 -1.3520 -0.7001  0.9979
25003SOL     OW76449   5.482   1.564  12.407  0.0258 -0.5454 -0.0299
25003SOL    HW176450   5.467   1.502  12.479  1.3122 -2.5753 -1.3867
25003SOL    HW276451   5.535   1.514  12.344  0.9279  1.9036 -1.3321
25004SOL     OW76452   1.641   3.905   4.074  0.1456 -0.2727  0.3301
25004SOL    HW176453   1.568   3.859   4.114 -0.5011  1.0065  0.6571
25004SOL    HW276454   1.692   3.940   4.147  1.3673 -1.5222  0.1253
25005SOL     OW76455   4.304   0.080  11.304  0.0285  0.2144 -0.5401
25005SOL    HW176456   4.388   0.074  11.258  1.0238  1.0122  1.0522
25005SOL    HW276457   4.252   0.141  11.253  0.0002 -1.0330 -2.0971
25006SOL     OW76458   0.585   2.595   2.496 -0.3560 -0.2829  1.1348
25006SOL    HW176459   0.675   2.596   2.463 -0.3929 -0.5387  1.0213
25006SOL    HW276460   0.535   2.646   2.433 -0.5931 -1.5064  0.2911
25007SOL     OW76461   3.297   7.784   7.283 -0.2092  0.4057  0.2021
25007SOL    HW176462   3.372   7.826   7.239 -0.5818  1.5447  0.6043
25007SOL    HW276463   3.289   7.699   7.241  1.2449  0.3069  0.0727
25008SOL     OW76464   6.166   1.948   1.716 -0.3609  0.1899  0.0508
25008SOL    HW176465   6.193   1.969   1.806 -0.5243  0.6297 -0.0034
25008SOL    HW276466   6.241   1.972   1.662 -1.4901  3.2355 -0.3247
25009SOL     OW76467   5.977   5.642   1.428  0.1636 -0.5012 -0.2859
25009SOL    HW176468   5.902   5.691   1.395  0.5162 -0.0866 -0.4923
25009SOL    HW276469   6.042   5.709   1.450  0.6117 -0.8668 -0.4645
25010SOL     OW76470   0.217   3.864   1.540 -0.6591 -0.2353  0.5462
25010SOL    HW176471   0.294   3.855   1.484 -1.1557  1.1306 -0.4244
25010SOL    HW276472   0.247   3.841   1.628  1.2531  1.7231  0.4687
25011SOL     OW76473   7.731   2.119   0.143  0.0360 -0.6066 -0.5578
25011SOL    HW176474   7.805   2.175   0.165  0.7308 -1.9230  0.6054
25011SOL    HW276475   7.654   2.176   0.154  0.8030  0.5580 -1.0414
25012SOL     OW76476   7.759   7.172  10.087 -0.7673  0.2716 -0.5812
25012SOL    HW176477   7.745   7.097  10.145  0.3460  0.8368  0.4401
25012SOL    HW276478   7.758   7.248  10.145  2.7530  0.6794 -0.8779
25013SOL     OW76479   0.912   7.001   2.908  0.0773  1.2694 -0.4956
25013SOL    HW176480   0.841   7.065   2.896  0.2110  1.5236  0.0467
25013SOL    HW276481   0.868   6.917   2.915 -0.2097  1.4795  0.3008
25014SOL     OW76482   6.615   5.152  10.044 -0.5204  0.7085  0.0065
25014SOL    HW176483   6.709   5.147  10.023 -0.6609 -0.6984 -0.3753
25014SOL    HW276484   6.608   5.228  10.101  1.1756 -0.2442  1.6130
25015SOL     OW76485   7.104   6.230   5.133 -0.7178  0.1174 -0.2772
25015SOL    HW176486   7.185   6.276   5.156 -1.8291  1.7123  0.6402
25015SOL    HW276487   7.106   6.151   5.188  0.8769 -0.6421 -1.3466
25016SOL     OW76488   7.457   7.260   1.469 -0.1551  0.1911  0.5035
25016SOL    HW176489   7.530   7.322   1.478  0.1824  0.1324 -1.3995
25016SOL    HW276490   7.445   7.224   1.556  0.9935  1.4346  1.2159
25017SOL     OW76491   5.148   1.732   0.665 -0.0326 -0.2704 -0.0968
25017SOL    HW176492   5.236   1.767   0.654  0.0346 -0.5485 -0.4330
25017SOL    HW276493   5.160   1.637   0.668 -0.1063 -0.2707  1.6858
25018SOL     OW76494   2.648   1.382   4.100 -0.3488  0.3488 -0.1229
25018SOL    HW176495   2.652   1.289   4.122 -0.0220  0.8041  1.9809
25018SOL    HW276496   2.710   1.392   4.028  0.9378 -0.7968  0.7649
25019SOL     OW76497   5.235   5.154  11.428  0.3427 -0.0031 -0.4008
25019SOL    HW176498   5.322   5.126  11.457  0.1491 -0.9165 -0.6633
25019SOL    HW276499   5.176   5.085  11.458 -0.5797  1.4844  1.3795
25020SOL     OW76500   2.037   2.441   9.070  0.2947  0.5307  0.7733
25020SOL    HW176501   2.045   2.472   8.979  1.7287 -0.3996  0.5397
25020SOL    HW276502   1.943   2.431   9.084 -0.1376  3.0922  0.2550
25021SOL     OW76503   0.639   6.971   8.078 -0.3032 -0.1410  0.2112
25021SOL    HW176504   0.562   7.014   8.042  0.1043 -0.3124 -0.9035
25021SOL    HW276505   0.605   6.896   8.127 -0.9106  0.5188  0.8041
25022SOL     OW76506   1.079   0.541   7.743 -0.2546  0.5896 -0.6447
25022SOL    HW176507   1.091   0.484   7.819  1.2268  0.5088 -0.9033
25022SOL    HW276508   0.995   0.584   7.758 -1.2340 -1.3706 -0.2731
25023SOL     OW76509   4.141   6.625  10.997  0.2322 -0.5877 -0.7242
25023SOL    HW176510   4.181   6.655  11.079 -0.2378  0.3942 -0.8327
25023SOL    HW276511   4.143   6.530  11.002  1.1866 -0.5492 -0.0516
25024SOL     OW76512   5.795   2.987   9.221  0.0017  0.2005  1.0685
25024SOL    HW176513   5.829   2.943   9.300  1.8270 -0.1380  0.1555
25024SOL    HW276514   5.872   3.030   9.184 -0.5463 -0.5922 -1.1406
25025SOL     OW76515   4.187   0.450   5.501  0.1356 -0.7339  0.4152
25025SOL    HW176516   4.167   0.413   5.587  0.6124 -3.2606 -0.4705
25025SOL    HW276517   4.136   0.398   5.440 -0.4964  1.2704 -0.8492
25026SOL     OW76518   7.173   5.016   2.153  0.4683  0.3711 -0.4006
25026SOL    HW176519   7.126   5.041   2.073  2.5443  2.3242 -1.1378
25026SOL    HW276520   7.130   5.066   2.223 -1.9886 -2.0786  0.0191
25027SOL     OW76521   5.904   7.394   6.371 -0.1782 -0.1002  0.2420
25027SOL    HW176522   5.875   7.401   6.462 -2.5148 -1.4538 -0.3277
25027SOL    HW276523   5.869   7.473   6.329  0.5268  0.3030  0.3863
25028SOL     OW76524   2.179   0.463   7.750  0.1942 -0.3703 -0.3672
25028SOL    HW176525   2.252   0.451   7.811 -0.2247 -0.1327  0.1889
25028SOL    HW276526   2.126   0.532   7.790  0.4805  0.5571 -1.5395
25029SOL     OW76527   0.174   7.028  11.341  0.3732  0.1577 -0.2652
25029SOL    HW176528   0.135   7.005  11.256 -0.0605  0.4960 -0.1617
25029SOL    HW276529   0.099   7.051  11.396  0.7317  1.1510 -0.1635
25030SOL     OW76530   6.899   6.176   7.998 -0.0777 -0.2689  0.0345
25030SOL    HW176531   6.886   6.151   7.906  1.7172 -0.9889 -0.0508
25030SOL    HW276532   6.862   6.103   8.048 -1.9968  0.5831 -0.0482
25031SOL     OW76533   6.461   2.238   7.922 -0.5401  0.0527  0.4000
25031SOL    HW176534   6.368   2.221   7.936 -0.7139  0.3265 -0.3274
25031SOL    HW276535   6.465   2.275   7.833  0.4449 -1.4468 -0.2142
25032SOL     OW76536   0.676   2.190  10.445  0.6099  0.1613 -0.3576
25032SOL    HW176537   0.595   2.144  10.465  0.4886  0.2944 -0.5410
25032SOL    HW276538   0.733   2.122  10.407  0.4113  0.1729 -0.6806
25033SOL     OW76539   3.996   0.153   1.880 -0.1463 -0.1432 -0.0095
25033SOL    HW176540   3.951   0.208   1.816  1.2568  0.1167 -0.8226
25033SOL    HW276541   4.026   0.215   1.947 -0.2071 -0.1914  0.0627
25034SOL     OW76542   1.896   6.167   6.233 -0.0121 -0.1226  0.3263
25034SOL    HW176543   1.805   6.159   6.205  0.3180  1.7186 -1.5138
25034SOL    HW276544   1.937   6.222   6.166  1.8215  1.3192  2.4893
25035SOL     OW76545   0.487   2.496   8.539 -0.2788  0.5566 -0.1381
25035SOL    HW176546   0.434   2.518   8.463 -1.1147 -0.3305  0.1678
25035SOL    HW276547   0.430   2.442   8.594  0.3258  1.1279  1.0971
25036SOL     OW76548   6.755   0.414   9.910 -0.2732 -0.7070  0.1513
25036SOL    HW176549   6.715   0.339   9.955  0.3424 -1.2714 -0.2174
25036SOL    HW276550   6.735   0.400   9.818  1.2114 -1.2941 -0.1061
25037SOL     OW76551   1.605   7.770   6.054 -0.4431  0.3162  0.3241
25037SOL    HW176552   1.625   7.845   6.110 -0.4446  0.7198 -0.2118
25037SOL    HW276553   1.690   7.743   6.018 -0.4928  0.2912  0.2256
25038SOL     OW76554   5.120   0.272   4.392 -0.7200 -1.1822  0.4057
25038SOL    HW176555   5.072   0.346   4.355  1.1013 -0.3567 -0.4334
25038SOL    HW276556   5.063   0.239   4.462 -1.1626  1.6486  1.5058
25039SOL     OW76557   6.673   0.248  12.134 -0.3655  0.1319 -0.2257
25039SOL    HW176558   6.747   0.304  12.157 -0.0089 -0.7458  0.8279
25039SOL    HW276559   6.626   0.298  12.067 -0.0469  1.6836  0.6485
25040SOL     OW76560   0.948   2.543   0.592  0.4344  0.1067  0.0706
25040SOL    HW176561   1.019   2.578   0.645 -0.0809  0.9040  0.2534
25040SOL    HW276562   0.974   2.453   0.573  1.2993  0.2649  0.4660
25041SOL     OW76563   6.296   3.016   2.294 -0.2099 -0.1103 -0.4003
25041SOL    HW176564   6.304   3.096   2.347  0.2001 -0.6076  0.3033
25041SOL    HW276565   6.204   2.992   2.302 -0.3214  0.2457 -0.5596
25042SOL     OW76566   2.884   1.526  11.411 -0.2677  0.2256  0.1074
25042SOL    HW176567   2.974   1.548  11.435 -1.1577  0.8435  3.5340
25042SOL    HW276568   2.881   1.430  11.419 -0.3550  0.3483  2.3142
25043SOL     OW76569   4.754   7.299   8.415 -0.7031 -0.1913  0.1388
25043SOL    HW176570   4.776   7.296   8.322 -0.5981 -1.2737  0.1844
25043SOL    HW276571   4.664   7.267   8.419 -1.6399  2.2492  0.1691
25044SOL     OW76572   7.802   2.523  11.585 -0.5154 -0.2328  0.2165
25044SOL    HW176573   7.716   2.490  11.560 -0.3775 -1.1150  0.8390
25044SOL    HW276574   7.784   2.608  11.627 -1.3667 -1.3833  2.3627
25045SOL     OW76575   0.032   6.872   6.955 -0.2067  0.1486  0.3667
25045SOL    HW176576   0.074   6.958   6.948 -0.0439 -0.0449 -1.2660
25045SOL    HW276577  -0.018   6.877   7.037 -0.0820  1.7432  0.3791
25046SOL     OW76578   6.648   0.361   3.444 -0.1917  0.1522 -0.1407
25046SOL    HW176579   6.622   0.450   3.423 -0.4831 -0.1180 -0.9490
25046SOL    HW276580   6.628   0.310   3.365  1.7393 -0.2735 -0.4013
25047SOL     OW76581   2.251   3.801   2.613  0.1008 -0.2588  0.1774
25047SOL    HW176582   2.279   3.777   2.701 -0.2097 -0.0134  0.3408
25047SOL    HW276583   2.324   3.853   2.578  0.0177  0.0474  0.4618
25048SOL     OW76584   0.678   7.581   9.438 -0.0038 -0.1809 -0.0228
25048SOL    HW176585   0.643   7.497   9.468 -0.4830  0.3203  0.8584
25048SOL    HW276586   0.626   7.647   9.484  2.5708  0.6174  1.9368
25049SOL     OW76587   4.876   4.466   4.759  0.4339 -0.1426  0.5893
25049SOL    HW176588   4.939   4.431   4.696  0.5905  0.6779  0.2862
25049SOL    HW276589   4.791   4.455   4.716  0.3921 -0.8784  0.8337
25050SOL     OW76590   7.945   1.257   5.931 -0.5279 -0.7273  0.0008
25050SOL    HW176591   8.014   1.254   5.865 -0.6460 -0.8759 -0.1156
25050SOL    HW276592   7.917   1.348   5.932 -1.9033 -1.0999 -1.5795
25051SOL     OW76593   0.888   4.657   1.547 -1.2074 -0.1160 -0.2827
25051SOL    HW176594   0.942   4.720   1.594 -1.3882 -0.1617 -0.0132
25051SOL    HW276595   0.887   4.580   1.603 -0.9464 -0.3816 -0.6334
25052SOL     OW76596   2.197   0.882   6.720 -0.4615  0.5182  0.4439
25052SOL    HW176597   2.226   0.967   6.686  1.4374 -0.3066 -0.1517
25052SOL    HW276598   2.143   0.845   6.651  0.7653  0.2120 -0.3836
25053SOL     OW76599   6.242   5.850  12.432  0.0546 -0.6351  0.0924
25053SOL    HW176600   6.281   5.888  12.353  0.3940  0.6198  0.8357
25053SOL    HW276601   6.151   5.834  12.408 -0.2124  1.0267 -0.1695
25054SOL     OW76602   4.553   6.574   9.657 -0.2380 -0.4882  0.3160
25054SOL    HW176603   4.519   6.585   9.746 -1.1956  2.1145 -0.3064
25054SOL    HW276604   4.475   6.573   9.601  0.4523  0.9321 -0.7376
25055SOL     OW76605   1.008   6.739   4.722  0.0100 -0.5690 -0.6011
25055SOL    HW176606   1.023   6.647   4.742  0.7583 -0.1056  1.2271
25055SOL    HW276607   1.055   6.753   4.639  1.7945 -1.3661  0.2053
25056SOL     OW76608   0.589   3.679  12.224  0.5877 -0.4234 -0.2046
25056SOL    HW176609   0.593   3.724  12.140  0.0922 -0.8195 -0.4463
25056SOL    HW276610   0.675   3.694  12.263  0.2511  1.1642 -0.0357
25057SOL     OW76611   0.651   4.358   2.983 -0.2137 -0.1356  0.7008
25057SOL    HW176612   0.713   4.291   3.012 -0.2569 -1.0131 -1.0873
25057SOL    HW276613   0.567   4.330   3.018 -0.1241 -0.6766  0.4877
25058SOL     OW76614   1.515   7.938   0.859 -0.0967 -0.2287 -0.3203
25058SOL    HW176615   1.552   7.849   0.863  1.0883  0.2642  0.1067
25058SOL    HW276616   1.425   7.925   0.829 -0.6051 -1.7644  1.6126
25059SOL     OW76617   2.449   0.054  11.371  0.4286  0.7336  0.2946
25059SOL    HW176618   2.382  -0.001  11.411  1.0212  0.8294  1.4473
25059SOL    HW276619   2.413   0.075  11.285  0.4252 -1.9197 -0.4526
25060SOL     OW76620   5.648   2.782   3.102 -0.1130  0.3407 -0.2610
25060SOL    HW176621   5.704   2.842   3.150 -0.6878 -0.5992  1.7282
25060SOL    HW276622   5.609   2.727   3.170  0.4479 -2.3351 -1.9502
25061SOL     OW76623   5.107   1.929   4.653 -0.1758  0.3687 -0.5471
25061SOL    HW176624   5.072   1.965   4.735 -0.1155 -2.0754  0.6599
25061SOL    HW276625   5.193   1.895   4.677  1.8782  3.5362 -2.7489
25062SOL     OW76626   7.593   2.210  11.142  0.3192  0.6439 -0.4975
25062SOL    HW176627   7.649   2.161  11.203 -0.3016 -1.1585 -1.2966
25062SOL    HW276628   7.595   2.300  11.175  0.9742 -0.0232  1.4557
25063SOL     OW76629   5.361   2.132  11.821 -0.1495 -0.0922 -0.1138
25063SOL    HW176630   5.455   2.153  11.828  0.4632 -2.7996  0.9999
25063SOL    HW276631   5.330   2.136  11.912 -0.7890 -0.6033 -0.3079
25064SOL     OW76632   3.037   4.268   2.771 -0.5284 -0.5371  0.3223
25064SOL    HW176633   3.010   4.355   2.801  0.8778  0.0939 -0.1573
25064SOL    HW276634   3.063   4.222   2.851  0.0888  0.0019  0.4453
25065SOL     OW76635   0.846   3.310   8.024 -0.5948 -0.5338 -0.3019
25065SOL    HW176636   0.870   3.338   8.112 -1.2863  1.7767 -0.7886
25065SOL    HW276637   0.911   3.350   7.966 -0.3171 -1.7844 -0.9107
25066SOL     OW76638   1.196   0.061   2.679  0.0721  0.2490  0.1354
25066SOL    HW176639   1.192   0.110   2.761  2.0867 -2.6446  2.1722
25066SOL    HW276640   1.109   0.022   2.670 -0.6746  1.8959 -0.0492
25067SOL     OW76641   2.615   6.742  10.909  0.2549 -0.1019 -0.7276
25067SOL    HW176642   2.700   6.774  10.940 -0.1295 -0.7927  1.1389
25067SOL    HW276643   2.551   6.801  10.948 -0.2181 -0.6283 -0.6872
25068SOL     OW76644   1.892   6.850   3.910 -1.0542 -0.5550 -0.3833
25068SOL    HW176645   1.824   6.793   3.945 -1.4453  0.4066  0.4823
25068SOL    HW276646   1.854   6.938   3.913 -0.1053 -0.1171 -0.7320
25069SOL     OW76647   7.295   1.850   1.521  0.3133 -0.1603  0.0846
25069SOL    HW176648   7.217   1.819   1.567  0.2976  0.5063  0.5161
25069SOL    HW276649   7.285   1.815   1.432 -0.4788 -0.0982  0.1334
25070SOL     OW76650   0.654   2.560   4.485 -0.3809 -0.5662 -0.2559
25070SOL    HW176651   0.736   2.581   4.529 -0.9986  0.6773  0.3341
25070SOL    HW276652   0.617   2.644   4.460 -0.7734 -1.1842 -1.8477
25071SOL     OW76653   5.787   1.395  12.341  0.5820  0.2017 -0.2110
25071SOL    HW176654   5.835   1.313  12.345  0.1091 -0.0515  0.3150
25071SOL    HW276655   5.817   1.445  12.417  1.4903  0.8703 -0.9818
25072SOL     OW76656   4.687   4.770   5.335  0.2102  0.5507  0.4563
25072SOL    HW176657   4.690   4.777   5.430  1.8399 -0.6302  0.5351
25072SOL    HW276658   4.768   4.812   5.305  0.4247 -0.3727 -0.2976
25073SOL     OW76659   6.385   3.992   0.943  0.0475 -0.0960  0.3766
25073SOL    HW176660   6.289   3.995   0.948  0.1208  0.6835  2.2877
25073SOL    HW276661   6.414   4.067   0.996  1.7193 -0.5078  0.0996
25074SOL     OW76662   6.951   4.697   4.279 -0.3033 -0.1939  0.2126
25074SOL    HW176663   7.039   4.686   4.313  0.1389  1.2766 -0.3742
25074SOL    HW276664   6.936   4.792   4.280 -1.2161 -0.2864 -1.2900
25075SOL     OW76665   6.574   0.518   3.073 -0.3413  0.3086 -0.4024
25075SOL    HW176666   6.598   0.590   3.014 -1.3909  0.8210 -0.2078
25075SOL    HW276667   6.492   0.484   3.037 -0.4490 -0.0498  0.1771
25076SOL     OW76668   5.755   0.534  12.287 -0.6190  0.0253 -0.5757
25076SOL    HW176669   5.730   0.442  12.293 -1.6741  0.3856  1.4450
25076SOL    HW276670   5.766   0.562  12.378  0.3869  1.7320 -1.1653
25077SOL     OW76671   4.645   0.197   9.979  0.3116 -0.0944 -0.2168
25077SOL    HW176672   4.721   0.164  10.026  0.3161  0.8691  0.4742
25077SOL    HW276673   4.591   0.239  10.046 -0.9798 -0.9968 -0.6373
25078SOL     OW76674   4.762   5.006   8.511  0.1156  0.2171  0.3118
25078SOL    HW176675   4.801   4.955   8.440 -1.6740  0.6807 -1.1024
25078SOL    HW276676   4.669   5.008   8.490 -0.4753  0.4480  2.6725
25079SOL     OW76677   7.935   1.639   1.490  0.1987  0.2857 -0.0287
25079SOL    HW176678   7.899   1.584   1.559 -1.5077 -1.5248 -2.2068
25079SOL    HW276679   7.875   1.713   1.485 -0.0687  0.0727 -0.0061
25080SOL     OW76680   7.277   7.663  12.286  0.5526 -0.0076 -0.1800
25080SOL    HW176681   7.256   7.756  12.279 -1.8840 -0.5008 -0.4116
25080SOL    HW276682   7.314   7.641  12.200  2.0281  0.9060  0.1919
25081SOL     OW76683   2.349   6.472   2.067 -0.7966 -0.2978 -0.3327
25081SOL    HW176684   2.386   6.494   1.982 -1.5866  0.4789 -0.4926
25081SOL    HW276685   2.310   6.385   2.054  0.5186 -0.9149 -0.2852
25082SOL     OW76686   1.505   2.646   4.925  0.3411 -0.3593 -0.7701
25082SOL    HW176687   1.458   2.601   4.996  1.1932 -1.3755 -0.8248
25082SOL    HW276688   1.597   2.630   4.944  0.6005 -0.1394 -1.7947
25083SOL     OW76689   1.233   2.197   6.042  0.1175  0.0567 -0.4622
25083SOL    HW176690   1.293   2.217   6.114  0.4904 -1.1431 -0.4222
25083SOL    HW276691   1.205   2.283   6.010  1.1167  0.6256  0.1326
25084SOL     OW76692   7.470   5.967   2.456 -0.1393  0.1863 -0.0721
25084SOL    HW176693   7.499   6.046   2.412  0.3779  0.4686  0.7567
25084SOL    HW276694   7.504   5.975   2.545 -2.4577  0.3808  0.8674
25085SOL     OW76695   3.594   5.297  11.386 -0.0798 -0.1237  0.1865
25085SOL    HW176696   3.505   5.329  11.372 -0.7580 -0.6394  2.8534
25085SOL    HW276697   3.584   5.202  11.392  0.2711 -0.0778  2.4002
25086SOL     OW76698   0.495   2.913   9.815 -0.1343 -0.3859  0.5156
25086SOL    HW176699   0.510   2.822   9.791  2.2295  0.0203  0.2339
25086SOL    HW276700   0.441   2.948   9.743 -0.2322 -1.2999  0.1346
25087SOL     OW76701   6.761   5.172   3.280 -0.8400 -0.8965 -0.5581
25087SOL    HW176702   6.743   5.106   3.347 -0.7339 -1.2329 -0.8560
25087SOL    HW276703   6.850   5.152   3.250  2.5228  3.6953  4.4033
25088SOL     OW76704   2.407   2.539   4.194 -0.1699  0.0536 -0.2330
25088SOL    HW176705   2.480   2.568   4.139 -0.6023  1.0761 -0.2922
25088SOL    HW276706   2.414   2.592   4.273 -1.4514  0.9350 -0.6766
25089SOL     OW76707   4.862   3.489   4.157  0.6988 -0.8106 -0.3425
25089SOL    HW176708   4.813   3.425   4.106 -1.5037 -0.7496  1.5026
25089SOL    HW276709   4.827   3.574   4.130  1.7208 -0.5569 -0.9016
25090SOL     OW76710   7.886   5.556   6.830  0.3406  0.0084 -0.1456
25090SOL    HW176711   7.794   5.556   6.854  0.0541  1.3368 -1.1140
25090SOL    HW276712   7.932   5.576   6.911 -0.4556  2.3457 -0.1928
25091SOL     OW76713   5.428   0.178   7.093 -0.5674 -0.0247  0.0334
25091SOL    HW176714   5.364   0.107   7.091 -0.8587  0.2374 -1.4732
25091SOL    HW276715   5.484   0.161   7.017  0.0251  0.7742  0.2805
25092SOL     OW76716   0.326   5.450   2.404  0.7108  0.3408  0.4051
25092SOL    HW176717   0.321   5.477   2.495  0.3154 -1.1148  0.8507
25092SOL    HW276718   0.372   5.521   2.360 -1.6296  2.4513  1.1405
25093SOL     OW76719   4.044   1.255   0.182 -0.3275  0.0224  0.0860
25093SOL    HW176720   4.060   1.196   0.109 -1.4287  0.7897 -0.8121
25093SOL    HW276721   4.112   1.233   0.246  0.6030 -0.7360 -1.1150
25094SOL     OW76722   4.652   0.358   0.122 -0.6819 -0.5763 -0.2988
25094SOL    HW176723   4.607   0.425   0.071 -2.5594 -1.6195 -0.1176
25094SOL    HW276724   4.679   0.293   0.058 -0.1193 -0.3352 -0.3127
25095SOL     OW76725   5.701   3.333   5.905 -0.1830  0.4909  0.5645
25095SOL    HW176726   5.752   3.370   5.977 -0.8796 -1.6213  2.2522
25095SOL    HW276727   5.610   3.350   5.928 -0.4411 -0.7815  0.5790
25096SOL     OW76728   2.166   0.361   4.477  0.5080  0.0906 -0.6737
25096SOL    HW176729   2.229   0.417   4.522  1.4380 -0.8871 -0.7009
25096SOL    HW276730   2.175   0.276   4.520  0.1825 -0.4187 -1.5801
25097SOL     OW76731   6.459   5.694   7.223 -0.3514  0.2651  0.2299
25097SOL    HW176732   6.410   5.775   7.210 -1.1468 -0.1947  0.3122
25097SOL    HW276733   6.532   5.720   7.280  1.3238  1.6172 -2.3145
25098SOL     OW76734   2.836   3.621   9.217 -0.0718 -0.2855 -0.1002
25098SOL    HW176735   2.779   3.667   9.279 -1.8458 -0.6667 -1.3487
25098SOL    HW276736   2.867   3.690   9.158 -0.5429 -0.2934 -0.3629
25099SOL     OW76737   7.682   2.206  11.710 -0.1638 -0.5292 -0.1835
25099SOL    HW176738   7.592   2.220  11.680 -0.1651  1.4893  0.6376
25099SOL    HW276739   7.676   2.211  11.805  0.6820 -1.4670 -0.0611
25100SOL     OW76740   5.246   7.264  11.210  0.1131  0.2353  0.4465
25100SOL    HW176741   5.273   7.253  11.301  1.7368 -0.2719 -0.0659
25100SOL    HW276742   5.214   7.178  11.183 -1.3866  0.6411  0.8147
25101SOL     OW76743   3.603   1.229   7.789 -0.2457 -0.1128 -0.4522
25101SOL    HW176744   3.629   1.152   7.840  0.2422 -0.0785 -0.6470
25101SOL    HW276745   3.543   1.276   7.846 -0.6650 -0.7145 -0.3859
25102SOL     OW76746   6.726   2.552   3.297 -0.3187 -0.0104 -0.0463
25102SOL    HW176747   6.815   2.544   3.331 -0.3859  0.4182  0.2287
25102SOL    HW276748   6.729   2.630   3.241 -0.0453 -1.0409 -1.5580
25103SOL     OW76749   1.382   3.562   4.128 -0.1040  0.3034  0.5412
25103SOL    HW176750   1.333   3.518   4.197 -0.6347 -0.0212 -0.0365
25103SOL    HW276751   1.321   3.568   4.055  0.6981 -0.0514 -0.1690
25104SOL     OW76752   3.525   0.838   4.348  0.1453 -0.2944 -0.9704
25104SOL    HW176753   3.464   0.766   4.330 -1.6534  1.2861 -1.6233
25104SOL    HW276754   3.588   0.834   4.276 -2.8600  1.6574 -4.0524
25105SOL     OW76755   1.727   6.604   0.319 -0.0011  0.1106 -0.0110
25105SOL    HW176756   1.788   6.540   0.356 -0.6498  0.1653  1.1988
25105SOL    HW276757   1.773   6.688   0.328  0.6235 -0.1036 -1.0940
25106SOL     OW76758   3.638   2.255   1.884 -0.3188 -0.2867  0.1788
25106SOL    HW176759   3.553   2.275   1.843 -1.5205 -0.1134  2.5844
25106SOL    HW276760   3.659   2.167   1.853  0.0508  0.6864 -2.6227
25107SOL     OW76761   3.644   2.165   9.167  0.8648  0.1804 -0.1547
25107SOL    HW176762   3.706   2.121   9.226  0.1044  0.8122  1.1634
25107SOL    HW276763   3.632   2.252   9.205 -1.0398 -0.0215 -0.1963
25108SOL     OW76764   2.746   6.128  12.350 -0.1112 -0.2766 -0.0748
25108SOL    HW176765   2.722   6.158  12.438  2.7797  1.5667  0.2423
25108SOL    HW276766   2.685   6.172  12.292  0.0347  1.1992  0.8446
25109SOL     OW76767   1.229   6.124   1.796  0.0626 -0.3723 -0.9763
25109SOL    HW176768   1.171   6.176   1.851  0.9013 -0.9193  0.4895
25109SOL    HW276769   1.220   6.162   1.709 -0.1934  1.5236 -0.1798
25110SOL     OW76770   3.743   5.092   5.414  0.3782  0.3006 -0.2899
25110SOL    HW176771   3.773   5.023   5.473  1.3120  0.8510 -0.1061
25110SOL    HW276772   3.719   5.164   5.471 -0.7517  0.0854 -0.4729
25111SOL     OW76773   3.814   4.817   4.596 -0.2383 -0.1044  0.0017
25111SOL    HW176774   3.796   4.857   4.510 -1.2478 -0.3528  0.0813
25111SOL    HW276775   3.888   4.867   4.630 -1.4379  1.7117  0.0950
25112SOL     OW76776   4.616   7.394  11.817  0.5054  0.3870 -0.7316
25112SOL    HW176777   4.693   7.391  11.873 -0.1539 -1.4364  0.1678
25112SOL    HW276778   4.597   7.302  11.797 -1.2177  0.7996 -1.1979
25113SOL     OW76779   5.660   1.029   0.809 -0.0716  0.5319  0.2459
25113SOL    HW176780   5.704   1.026   0.725  0.5333  0.1880  0.5696
25113SOL    HW276781   5.664   0.939   0.842  0.2697  0.7876  0.9268
25114SOL     OW76782   4.674   7.661   9.396  0.0620 -0.2582 -0.2877
25114SOL    HW176783   4.689   7.753   9.416  0.9727 -0.5207  0.3088
25114SOL    HW276784   4.748   7.615   9.436 -1.1032 -1.3986  0.6355
25115SOL     OW76785   1.816   5.506   3.988  0.3613  0.3319  0.5669
25115SOL    HW176786   1.774   5.430   4.028  0.1860  0.7008  1.0914
25115SOL    HW276787   1.847   5.558   4.062  0.9729  0.4997  0.2012
25116SOL     OW76788   0.559   3.182  10.448 -0.2419  0.3003 -0.2754
25116SOL    HW176789   0.538   3.090  10.464 -0.5705  0.6892  1.7498
25116SOL    HW276790   0.646   3.179  10.407 -0.4229 -0.9191 -0.6284
25117SOL     OW76791   0.967   1.411   7.042  0.8834 -0.2391  0.2870
25117SOL    HW176792   0.997   1.352   7.111  1.6031  2.1641  2.1815
25117SOL    HW276793   1.027   1.395   6.969  1.5018 -1.2959  0.9991
25118SOL     OW76794   1.249   2.348   5.622  0.5147 -0.2246  0.2215
25118SOL    HW176795   1.232   2.263   5.663  1.0574  0.1798  1.3264
25118SOL    HW276796   1.333   2.338   5.578  0.3383 -0.4053 -0.0769
25119SOL     OW76797   7.303   1.720   4.065 -0.4926 -0.1994  0.2532
25119SOL    HW176798   7.355   1.731   4.144 -1.2621  0.8903  0.6319
25119SOL    HW276799   7.300   1.625   4.051  1.9690 -0.2949 -0.0628
25120SOL     OW76800   6.120   2.292   9.349 -0.3314 -0.3239  0.3041
25120SOL    HW176801   6.050   2.260   9.406  2.1798 -1.4971  3.0012
25120SOL    HW276802   6.133   2.383   9.377 -1.5130  0.2917 -1.0535
25121SOL     OW76803   5.422   5.555   6.647 -0.4064 -0.4459  0.5841
25121SOL    HW176804   5.495   5.603   6.609  2.0212 -1.4205  3.6102
25121SOL    HW276805   5.404   5.600   6.730 -1.3390 -1.9163  1.2183
25122SOL     OW76806   3.103   2.210   6.916 -0.1684 -0.2096 -0.1354
25122SOL    HW176807   3.190   2.216   6.956 -1.4687 -0.3362  3.0881
25122SOL    HW276808   3.091   2.117   6.897 -0.3233 -0.5393  1.4199
25123SOL     OW76809   5.103   5.350   7.592  0.2759  0.3584  0.5133
25123SOL    HW176810   5.033   5.343   7.527 -0.8770 -1.0410  1.8491
25123SOL    HW276811   5.170   5.290   7.560  0.1157  0.3602  0.1590
25124SOL     OW76812   3.987   3.224   6.460 -0.3453 -0.1987  0.1371
25124SOL    HW176813   4.079   3.205   6.442 -0.0522  1.0423  0.2518
25124SOL    HW276814   3.940   3.185   6.386  0.1161 -2.0415  0.7546
25125SOL     OW76815   3.787   7.920   6.196 -0.5761 -0.5149  0.0708
25125SOL    HW176816   3.792   7.835   6.152 -0.7591 -0.5620  0.1382
25125SOL    HW276817   3.836   7.908   6.277  1.6272  0.1933 -1.0735
25126SOL     OW76818   4.282   2.231   0.008 -0.0781  0.3261  0.4514
25126SOL    HW176819   4.299   2.195   0.095  0.3296  0.8306  0.5865
25126SOL    HW276820   4.202   2.282   0.018  1.9091  3.6161  1.5608
25127SOL     OW76821   5.951   7.869   6.015 -0.2762  0.8536 -0.1434
25127SOL    HW176822   6.026   7.903   5.965  0.3676 -1.8081 -1.2046
25127SOL    HW276823   5.982   7.866   6.105  0.5640  0.6788 -0.4270
25128SOL     OW76824   1.651   5.932   9.040  0.5971 -0.2082  0.2034
25128SOL    HW176825   1.586   5.989   9.082  0.2846  0.6240 -1.3602
25128SOL    HW276826   1.733   5.953   9.085  0.5593  1.7474 -0.5295
25129SOL     OW76827   0.832   0.639   2.373  0.0776 -0.0838  0.1596
25129SOL    HW176828   0.832   0.688   2.456 -1.2210 -0.6212  0.5062
25129SOL    HW276829   0.827   0.707   2.306  3.5419  0.5120  0.3191
25130SOL     OW76830   6.859   3.294   0.349 -0.7633  0.1078 -0.3179
25130SOL    HW176831   6.921   3.366   0.336  0.2111 -0.3619  1.2964
25130SOL    HW276832   6.864   3.243   0.268  1.7132 -0.4081  0.0559
25131SOL     OW76833   3.852   6.428   2.298 -0.1981 -0.6056  0.3124
25131SOL    HW176834   3.943   6.452   2.279  0.1747 -1.9440  0.3124
25131SOL    HW276835   3.836   6.350   2.246 -0.8650 -1.2520  1.4472
25132SOL     OW76836   2.822   4.809   2.948  0.1533  0.4363 -0.3772
25132SOL    HW176837   2.774   4.860   3.013 -0.5161  0.0190 -0.5301
25132SOL    HW276838   2.763   4.737   2.925  1.8762 -1.6615  1.3855
25133SOL     OW76839   2.500   4.152  10.706  0.1570 -0.3122  0.0581
25133SOL    HW176840   2.536   4.197  10.630 -0.4950 -1.2872 -0.8478
25133SOL    HW276841   2.570   4.154  10.771  1.1546 -0.5105 -0.9942
25134SOL     OW76842   3.772   1.436   4.559 -0.8667 -0.0785  0.6175
25134SOL    HW176843   3.825   1.415   4.482  0.2757  0.3910  1.2576
25134SOL    HW276844   3.689   1.391   4.544 -1.1257  0.9862 -1.4637
25135SOL     OW76845   7.549   2.409   9.475  0.0270 -0.0530 -0.2665
25135SOL    HW176846   7.613   2.368   9.417  0.3262  0.4221 -0.2738
25135SOL    HW276847   7.513   2.482   9.425 -2.2954 -1.7032 -1.1918
25136SOL     OW76848   0.275   2.052   2.491 -0.3005 -0.5127  0.5911
25136SOL    HW176849   0.225   2.131   2.513  1.9308  0.4870  2.5563
25136SOL    HW276850   0.351   2.085   2.442 -0.2219 -1.6780 -0.1064
25137SOL     OW76851   3.660   7.073   0.019 -0.4863 -0.6970  0.0232
25137SOL    HW176852   3.662   6.995   0.074  0.1689 -1.1834 -0.6707
25137SOL    HW276853   3.708   7.139   0.068  0.7647 -1.3549 -0.2879
25138SOL     OW76854   2.288   2.034   2.406 -0.3623  0.5896  0.0880
25138SOL    HW176855   2.231   2.028   2.482 -0.7207  1.0576 -0.1447
25138SOL    HW276856   2.274   2.122   2.371  0.1327  0.5386 -0.2589
25139SOL     OW76857   4.345   0.269   6.996 -0.0789  0.1318 -0.0538
25139SOL    HW176858   4.271   0.306   6.947 -0.8661 -0.7907  0.4012
25139SOL    HW276859   4.417   0.329   6.979 -1.8261  3.2596  2.4906
25140SOL     OW76860   0.290   2.585   2.381  0.3244 -0.1298 -0.3156
25140SOL    HW176861   0.311   2.635   2.303 -0.0305  1.2295  0.4177
25140SOL    HW276862   0.206   2.543   2.361  0.5835 -0.3683 -0.9141
25141SOL     OW76863   5.610   5.007   9.104 -0.3192 -0.2811 -0.4915
25141SOL    HW176864   5.682   4.964   9.058 -1.5396 -1.5689 -1.2972
25141SOL    HW276865   5.566   5.059   9.037 -0.8647 -0.4974 -0.3077
25142SOL     OW76866   4.741   4.847   9.804 -0.3455 -0.2120  0.1780
25142SOL    HW176867   4.833   4.875   9.805 -0.1073 -0.5661 -2.9485
25142SOL    HW276868   4.715   4.847   9.896  2.5603  0.5976  1.0970
25143SOL     OW76869   5.953   0.331   5.386  0.5480 -0.7453 -0.1556
25143SOL    HW176870   5.987   0.403   5.333 -4.2640 -0.3658 -3.2817
25143SOL    HW276871   5.914   0.373   5.463 -0.1693 -0.2248 -0.7887
25144SOL     OW76872   3.608   0.492   5.668  0.6599  0.2552 -0.3672
25144SOL    HW176873   3.692   0.473   5.710  0.5590 -0.5252 -0.5067
25144SOL    HW276874   3.578   0.572   5.710  1.3549  0.3997 -0.1354
25145SOL     OW76875   3.311   0.614   5.397  0.1156 -0.3455 -0.0253
25145SOL    HW176876   3.342   0.531   5.360 -0.3462 -0.0628 -1.0967
25145SOL    HW276877   3.282   0.592   5.485  1.1144 -1.0824  0.1380
25146SOL     OW76878   1.644   7.612   8.658 -0.7745 -0.1006 -0.5527
25146SOL    HW176879   1.611   7.667   8.729 -0.4873  0.6018 -0.9463
25146SOL    HW276880   1.707   7.553   8.700 -0.0521  0.8036 -0.3339
25147SOL     OW76881   2.233   4.510   1.489 -0.2856 -0.2340  0.4708
25147SOL    HW176882   2.190   4.449   1.549 -0.9474 -0.1164  0.1345
25147SOL    HW276883   2.222   4.596   1.530 -0.0807 -0.2447  0.5467
25148SOL     OW76884   3.915   3.726   0.520 -0.0133  0.4785 -0.0663
25148SOL    HW176885   3.933   3.635   0.496  1.4913  0.4480  1.0535
25148SOL    HW276886   3.876   3.720   0.607 -0.4130  0.8897 -0.2132
25149SOL     OW76887   3.964   5.461   7.850  0.5555  0.3900  0.4543
25149SOL    HW176888   3.898   5.444   7.783 -1.2689 -0.0714  2.2564
25149SOL    HW276889   4.034   5.398   7.833 -0.5061 -0.6361 -0.1843
25150SOL     OW76890   3.979   2.469   9.814  0.2885 -0.7359  0.0951
25150SOL    HW176891   3.904   2.448   9.870  1.5776 -0.5861  1.9439
25150SOL    HW276892   3.946   2.536   9.754 -1.1143 -0.8790  0.6679
25151SOL     OW76893   4.527   3.735   5.766 -0.6483 -0.7591 -0.7532
25151SOL    HW176894   4.586   3.670   5.728  0.3262 -0.3383  0.0034
25151SOL    HW276895   4.473   3.685   5.827 -0.1259 -0.9144 -0.4167
25152SOL     OW76896   6.528   5.231   5.017 -0.1642 -0.2192 -0.4461
25152SOL    HW176897   6.541   5.138   4.999  0.0887 -0.4702  0.8701
25152SOL    HW276898   6.441   5.251   4.984 -0.9882 -1.4024  0.9072
25153SOL     OW76899   3.009   5.423   8.553  0.3004  0.0456  0.0920
25153SOL    HW176900   2.962   5.478   8.490 -0.0093  1.1859  1.2801
25153SOL    HW276901   3.091   5.401   8.509 -0.8604 -1.1022 -1.5951
25154SOL     OW76902   3.914   4.821   5.994  0.0479 -0.0502  0.2350
25154SOL    HW176903   3.892   4.914   5.996 -3.1679 -0.7189  1.3267
25154SOL    HW276904   3.923   4.796   6.086  2.1337 -0.6291 -0.0700
25155SOL     OW76905   5.645   1.084   9.189  0.2556  0.5405  0.3550
25155SOL    HW176906   5.651   1.002   9.239 -0.4671  0.2651  0.0095
25155SOL    HW276907   5.552   1.106   9.191  0.2154  0.5282 -0.8707
25156SOL     OW76908   4.255   1.487   1.753 -0.0978 -0.6191 -0.2341
25156SOL    HW176909   4.347   1.460   1.763 -0.0046 -0.0264  0.5520
25156SOL    HW276910   4.238   1.478   1.659  0.1608 -2.6482 -0.1473
25157SOL     OW76911   3.010   3.129  10.170 -0.9936 -0.2558 -0.1257
25157SOL    HW176912   3.020   3.129  10.075  0.1950 -2.7418 -0.0828
25157SOL    HW276913   3.006   3.222  10.194  1.7965  0.5707 -2.3319
25158SOL     OW76914   6.797   3.016   0.960  0.0362 -0.1091 -0.1405
25158SOL    HW176915   6.757   2.946   1.012  0.2837 -0.4060 -0.3499
25158SOL    HW276916   6.790   3.093   1.016 -0.0357 -0.3472  0.1840
25159SOL     OW76917   7.036   2.764   5.097 -0.1133 -0.3280 -0.1678
25159SOL    HW176918   7.065   2.811   5.175  1.1202 -2.8015  0.9821
25159SOL    HW276919   6.941   2.773   5.097 -0.0373  0.7111  0.9261
25160SOL     OW76920   0.967   4.071   7.481  0.2758 -0.0725  0.1425
25160SOL    HW176921   0.902   4.141   7.478 -0.1838 -0.3378  2.2629
25160SOL    HW276922   1.024   4.088   7.407 -1.1984  1.1766 -0.7533
25161SOL     OW76923   6.734   0.142   2.915 -0.1510 -0.7821 -0.0449
25161SOL    HW176924   6.702   0.081   2.981 -0.2188 -0.7796 -0.0750
25161SOL    HW276925   6.664   0.144   2.849 -0.6155  0.0923  0.4448
25162SOL     OW76926   3.241   6.391   5.297 -0.0108  0.4181  0.3975
25162SOL    HW176927   3.322   6.405   5.249  0.3477 -1.0115  0.5544
25162SOL    HW276928   3.216   6.301   5.278 -1.5939  0.8242  0.3278
25163SOL     OW76929   2.601   3.165  11.792 -0.4979  0.0190 -0.2485
25163SOL    HW176930   2.549   3.149  11.871  0.9454  1.1409  0.9664
25163SOL    HW276931   2.580   3.255  11.767  1.9727  1.0856  1.2031
25164SOL     OW76932   0.391   1.628   1.289 -0.2934 -0.1240 -0.5507
25164SOL    HW176933   0.393   1.714   1.247  0.6749  1.0482  1.7060
25164SOL    HW276934   0.470   1.626   1.344 -0.7561 -2.1031  0.1240
25165SOL     OW76935   5.428   5.205   9.560 -0.1453  0.2060  0.2751
25165SOL    HW176936   5.344   5.191   9.604 -0.8129  0.2805 -0.9476
25165SOL    HW276937   5.406   5.214   9.468  1.1392  0.9068  0.0082
25166SOL     OW76938   7.433   1.439  12.089  0.2349 -0.4600 -0.0467
25166SOL    HW176939   7.348   1.477  12.115  1.4330  0.3831  3.1456
25166SOL    HW276940   7.496   1.510  12.105  1.7583 -1.6964 -0.4002
25167SOL     OW76941   0.687   2.315   8.438 -0.0084  0.1244 -0.1010
25167SOL    HW176942   0.711   2.262   8.514  0.5057  3.3620  2.2346
25167SOL    HW276943   0.638   2.389   8.475  1.9571  2.9293 -2.6332
25168SOL     OW76944   0.243   5.309   4.401  0.3683  0.0350 -0.0011
25168SOL    HW176945   0.174   5.360   4.443  0.7335 -0.4402  1.2205
25168SOL    HW276946   0.261   5.238   4.462  2.5125  0.6125  0.1262
25169SOL     OW76947   2.661   4.766   4.124 -0.5054  0.4879 -0.6400
25169SOL    HW176948   2.663   4.674   4.099 -2.2672  0.6405 -1.4349
25169SOL    HW276949   2.612   4.810   4.055  1.4379  2.2966 -1.0004
25170SOL     OW76950   7.044   0.305   7.230  0.8564  0.3506  0.1718
25170SOL    HW176951   6.989   0.382   7.243  0.3935  0.1547 -0.5388
25170SOL    HW276952   7.083   0.317   7.143  0.4525 -0.4059 -0.1288
25171SOL     OW76953   4.088   4.312   3.569  0.0896  0.0348  0.3599
25171SOL    HW176954   4.159   4.353   3.618 -1.1239  1.6137  0.8520
25171SOL    HW276955   4.082   4.224   3.607  1.4321  0.0357  0.6479
25172SOL     OW76956   4.756   4.674   0.562 -0.2774 -0.0624 -0.1570
25172SOL    HW176957   4.809   4.700   0.637 -1.0734  1.1497  0.0243
25172SOL    HW276958   4.681   4.628   0.599 -0.9129  0.9439 -0.1274
25173SOL     OW76959   4.631   1.570   2.479  0.0450  0.0974  0.9107
25173SOL    HW176960   4.547   1.615   2.466 -2.0571 -3.5591  0.4951
25173SOL    HW276961   4.609   1.494   2.533  2.9840 -1.3889  0.2155
25174SOL     OW76962   3.290   3.952   8.612  0.0664 -0.3371 -0.1111
25174SOL    HW176963   3.340   3.930   8.691 -0.8025  1.2366  0.9330
25174SOL    HW276964   3.201   3.966   8.644 -0.3545  0.1023 -1.4224
25175SOL     OW76965   5.146   1.243   8.896 -0.0435  0.1987  0.4031
25175SOL    HW176966   5.185   1.331   8.895 -2.3902  1.3406  1.1511
25175SOL    HW276967   5.054   1.258   8.874 -1.1459 -1.7182  3.1900
25176SOL     OW76968   7.021   5.666   4.367  0.2291 -0.0216 -0.1279
25176SOL    HW176969   6.972   5.606   4.311  1.4354 -1.8103  0.6496
25176SOL    HW276970   7.022   5.624   4.453  0.2959  1.5973  0.6979
25177SOL     OW76971   1.555   7.782   6.731 -0.2132  0.1237  0.4813
25177SOL    HW176972   1.465   7.753   6.718  0.7626 -2.7600 -0.7313
25177SOL    HW276973   1.553   7.876   6.711 -2.6672 -0.1542 -1.0524
25178SOL     OW76974   5.907   6.730   7.271 -0.0767  0.1022  0.0628
25178SOL    HW176975   5.991   6.695   7.301 -1.1153 -1.0612  1.8194
25178SOL    HW276976   5.899   6.815   7.316  0.2536  0.3275 -0.2987
25179SOL     OW76977   0.798   0.904   4.424  0.3048 -0.1819 -0.3006
25179SOL    HW176978   0.797   0.980   4.482 -1.2793 -0.6679  0.3701
25179SOL    HW276979   0.763   0.935   4.341  0.3421 -0.0193 -0.2555
25180SOL     OW76980   2.489   2.901   4.860  0.3663  0.1557  0.3623
25180SOL    HW176981   2.570   2.853   4.846  0.6012  1.0302 -1.7147
25180SOL    HW276982   2.507   2.990   4.829 -1.2885  0.4498  0.1080
25181SOL     OW76983   3.903   1.502   7.507  0.1851 -0.1661 -0.1072
25181SOL    HW176984   3.880   1.455   7.427  1.0624  0.3238 -0.6681
25181SOL    HW276985   3.876   1.444   7.578  1.1842 -1.5006 -0.7796
25182SOL     OW76986   1.574   5.766   4.781 -0.4025 -0.4536 -0.5027
25182SOL    HW176987   1.641   5.700   4.799 -0.0010 -0.1456 -0.8209
25182SOL    HW276988   1.622   5.849   4.783 -1.0801 -0.0702  0.8992
25183SOL     OW76989   1.577   4.782   4.381 -0.0554 -0.3757 -0.0036
25183SOL    HW176990   1.558   4.856   4.323 -0.6542 -0.0242  0.6327
25183SOL    HW276991   1.491   4.752   4.411  0.2497 -0.5449  0.7117
25184SOL     OW76992   7.711   7.752   4.242 -0.0636 -0.0900  0.3208
25184SOL    HW176993   7.674   7.672   4.280 -0.7617  0.9442  1.9212
25184SOL    HW276994   7.644   7.783   4.181 -0.3161 -0.1057  0.5866
25185SOL     OW76995   0.422   0.225   4.145  0.0059 -0.7261  0.1077
25185SOL    HW176996   0.496   0.177   4.183 -0.1504 -1.8263 -0.9084
25185SOL    HW276997   0.375   0.260   4.221  1.4734 -0.1101  0.7759
25186SOL     OW76998   4.280   5.286   2.951  0.2217  0.2293  0.5646
25186SOL    HW176999   4.286   5.381   2.956  2.7088  0.1951 -0.4051
25186SOL    HW277000   4.261   5.259   3.041 -1.4896  1.6352  0.6864
25187SOL     OW77001   3.108   6.416   5.976  0.0620  0.0025 -0.1316
25187SOL    HW177002   3.162   6.351   5.932  0.5727  0.2367  0.1398
25187SOL    HW277003   3.018   6.389   5.958  0.2631 -0.0239 -1.1255
25188SOL     OW77004   6.931   2.681   4.808 -0.1504  0.6038  0.2063
25188SOL    HW177005   6.870   2.748   4.778  0.5524  0.8072 -0.7745
25188SOL    HW277006   6.998   2.728   4.857  0.7155  0.7273 -1.0538
25189SOL     OW77007   7.064   7.084   8.820  0.3176  0.5406 -0.2998
25189SOL    HW177008   7.045   6.997   8.786 -0.9599 -0.1024  1.8569
25189SOL    HW277009   7.013   7.144   8.766  0.1491 -0.1835 -0.9477
25190SOL     OW77010   4.538   0.508   4.168 -0.6992  0.3694 -0.0824
25190SOL    HW177011   4.488   0.525   4.088  0.0722 -0.6600 -0.8050
25190SOL    HW277012   4.628   0.496   4.137 -0.6477 -1.6441  0.7408
25191SOL     OW77013   7.019   5.363   2.178 -0.1043 -0.2020  0.5268
25191SOL    HW177014   6.990   5.282   2.136 -1.4541  0.3751  0.3153
25191SOL    HW277015   6.986   5.357   2.267  0.3599 -0.1661  0.7061
25192SOL     OW77016   7.685   2.723   5.778  0.2238 -0.1147  0.6024
25192SOL    HW177017   7.761   2.696   5.727  2.0614 -1.5175  3.7350
25192SOL    HW277018   7.693   2.818   5.785  0.1311  0.0620 -1.2664
25193SOL     OW77019   4.826   3.848   6.002  0.1364 -0.1360  0.5291
25193SOL    HW177020   4.749   3.905   6.008  1.0062  0.9383  5.1900
25193SOL    HW277021   4.900   3.907   6.021  1.6239 -1.9210  0.5353
25194SOL     OW77022   3.881   5.035   8.442  0.4504 -0.5623 -0.5787
25194SOL    HW177023   3.917   4.954   8.405  1.7728 -0.1481 -0.2658
25194SOL    HW277024   3.910   5.034   8.533  0.1791  0.0897 -0.4849
25195SOL     OW77025   4.516   4.474   4.938  0.0292 -0.0135  0.0804
25195SOL    HW177026   4.518   4.537   5.011 -2.2913 -0.3365  0.4912
25195SOL    HW277027   4.569   4.516   4.870 -0.2698  1.7327  0.8516
25196SOL     OW77028   7.067   0.238   4.206  0.4761  0.1949 -0.2893
25196SOL    HW177029   7.067   0.273   4.296 -1.6993  1.0956 -0.5756
25196SOL    HW277030   7.014   0.300   4.156  0.1429 -1.2462 -1.8159
25197SOL     OW77031   6.705   5.384   4.385 -0.0502  0.2891  0.0271
25197SOL    HW177032   6.754   5.336   4.451  0.2701  0.3488 -0.1683
25197SOL    HW277033   6.641   5.436   4.436 -1.8231 -1.8675  0.1546
25198SOL     OW77034   4.708   4.848   7.332 -0.0986 -0.0218 -0.4403
25198SOL    HW177035   4.776   4.788   7.363 -0.4641 -0.9620 -1.4063
25198SOL    HW277036   4.647   4.792   7.284 -0.4363  1.1236 -1.3860
25199SOL     OW77037   4.293   6.055  12.037 -0.4489 -0.5763  0.6427
25199SOL    HW177038   4.298   6.061  12.133  1.4147 -0.1364  0.5486
25199SOL    HW277039   4.285   5.962  12.019  2.4392 -1.0090  1.1790
25200SOL     OW77040   2.704   2.097  10.136  0.0733 -0.6654 -0.6071
25200SOL    HW177041   2.665   2.013  10.163  1.1161 -1.2303 -0.8185
25200SOL    HW277042   2.792   2.074  10.107  0.5840  0.5991 -0.0960
25201SOL     OW77043   7.946   4.235   4.197  0.0645  0.3190  0.1219
25201SOL    HW177044   7.974   4.314   4.243  0.0006  0.6364 -0.3678
25201SOL    HW277045   7.853   4.226   4.218  0.1872  0.0888  0.5783
25202SOL     OW77046   1.243   3.746  11.193  0.1983  0.1592  0.2005
25202SOL    HW177047   1.168   3.776  11.245  0.0426 -1.5607  1.0441
25202SOL    HW277048   1.273   3.825  11.147 -1.3428  1.1586  0.8007
25203SOL     OW77049   7.284   5.940   1.104 -0.6414 -0.1951  0.2228
25203SOL    HW177050   7.249   6.029   1.102 -0.0843  0.1278  2.4238
25203SOL    HW277051   7.217   5.888   1.146 -0.0719 -0.3534  0.9535
25204SOL     OW77052   6.657   2.377   6.284  0.3165  0.4178 -0.2812
25204SOL    HW177053   6.665   2.412   6.373  0.8063  0.7809 -0.4659
25204SOL    HW277054   6.579   2.419   6.248  1.0667  1.5874 -0.6125
25205SOL     OW77055   2.449   7.764  12.002  0.0909 -0.4458  1.0244
25205SOL    HW177056   2.515   7.698  12.024  0.3096  0.1823  2.3329
25205SOL    HW277057   2.440   7.758  11.907  0.6045 -1.8805  1.0481
25206SOL     OW77058   2.394   0.428   6.333  0.0978  0.2506 -0.8767
25206SOL    HW177059   2.359   0.399   6.249 -1.2068  0.8808 -0.5729
25206SOL    HW277060   2.420   0.519   6.318 -1.2639  0.7542 -0.2986
25207SOL     OW77061   7.643   7.355   3.513  0.5634 -0.2113 -0.3861
25207SOL    HW177062   7.612   7.268   3.488 -0.1094  0.1699 -0.9097
25207SOL    HW277063   7.729   7.339   3.552 -0.2022 -1.2798  0.9641
25208SOL     OW77064   2.705   0.244   4.906 -0.2271  0.1979 -0.1448
25208SOL    HW177065   2.698   0.330   4.947 -0.0659 -0.0420  0.3973
25208SOL    HW277066   2.694   0.261   4.812 -0.4190  0.7771 -0.0208
25209SOL     OW77067   6.152   1.442   4.463 -0.3622  0.2199  0.5340
25209SOL    HW177068   6.130   1.511   4.401  1.7606  1.1443  0.7180
25209SOL    HW277069   6.145   1.361   4.413  1.1159  0.9236 -0.9218
25210SOL     OW77070   4.077   4.291  12.317  0.4478  0.1867 -0.0152
25210SOL    HW177071   4.052   4.283  12.409 -0.2822 -0.1686 -0.2395
25210SOL    HW277072   4.121   4.208  12.298 -0.5620 -0.2898 -0.3330
25211SOL     OW77073   0.587   5.249  11.440  0.0174 -0.5007  0.2709
25211SOL    HW177074   0.570   5.181  11.375  1.2259 -0.5031 -0.0699
25211SOL    HW277075   0.606   5.328  11.388 -1.6532  0.2038  0.6612
25212SOL     OW77076   2.240   7.376   1.037 -0.5498  0.4246  0.2377
25212SOL    HW177077   2.264   7.284   1.028 -1.3173  0.2971 -0.7063
25212SOL    HW277078   2.319   7.425   1.016 -0.9189  0.0189 -2.4241
25213SOL     OW77079   1.681   4.058  11.220 -0.1814  0.0656  0.1204
25213SOL    HW177080   1.755   4.041  11.279 -1.6116 -0.5595  1.8056
25213SOL    HW277081   1.721   4.067  11.133  2.2901  3.1993  1.3980
25214SOL     OW77082   5.722   6.344   5.176  0.2339  0.1180 -0.1631
25214SOL    HW177083   5.758   6.306   5.257  2.1368  0.7838 -0.6418
25214SOL    HW277084   5.768   6.297   5.106 -0.0971  0.7769 -0.8270
25215SOL     OW77085   0.397   4.636   6.756  0.0708 -0.0729 -0.1753
25215SOL    HW177086   0.372   4.624   6.665 -2.3136  0.0608  0.3982
25215SOL    HW277087   0.375   4.553   6.799  1.3341 -0.2040  0.2903
25216SOL     OW77088   6.377   6.300   0.161 -0.5514  0.0155 -0.2440
25216SOL    HW177089   6.407   6.346   0.082 -1.1861 -1.4076 -1.3733
25216SOL    HW277090   6.382   6.207   0.137  0.8903 -0.5726  2.0195
25217SOL     OW77091   6.421   1.090   8.608 -0.2009 -0.2365 -0.1988
25217SOL    HW177092   6.451   1.173   8.572  0.0710 -0.0490  0.4536
25217SOL    HW277093   6.502   1.040   8.624 -0.3529 -0.5642 -0.4325
25218SOL     OW77094   5.761   0.342  10.269 -0.6349 -0.1548  0.1420
25218SOL    HW177095   5.668   0.321  10.277 -0.7765 -0.0676 -1.0758
25218SOL    HW277096   5.765   0.438  10.270 -0.5020 -0.1613  0.6486
25219SOL     OW77097   6.823   4.694   8.755  0.1814 -0.2648 -0.2859
25219SOL    HW177098   6.741   4.740   8.769  1.1677  1.5931 -0.3012
25219SOL    HW277099   6.812   4.648   8.672 -1.4160 -1.4748  0.5372
25220SOL     OW77100   0.290   7.286   9.955 -0.6413 -0.1655 -0.1018
25220SOL    HW177101   0.203   7.252   9.938 -1.1064  1.6072 -1.6654
25220SOL    HW277102   0.278   7.352  10.024 -0.4278 -0.3646  0.1291
25221SOL     OW77103   4.528   6.268   0.806  0.1626 -0.0563 -0.3230
25221SOL    HW177104   4.622   6.256   0.802  0.0213 -1.2158 -0.5359
25221SOL    HW277105   4.499   6.210   0.877 -0.2792  1.0733  0.4504
25222SOL     OW77106   2.692   2.211   0.050  0.0115  0.1531  0.1976
25222SOL    HW177107   2.691   2.258  -0.033  2.6687 -0.0310 -0.0239
25222SOL    HW277108   2.614   2.155   0.047 -1.3221  1.9705 -1.0225
25223SOL     OW77109   3.527   4.398   5.053  0.0299  0.1777  0.4139
25223SOL    HW177110   3.551   4.417   4.962 -1.4176  0.0593 -0.0138
25223SOL    HW277111   3.462   4.464   5.076 -0.7495 -0.7125  0.8425
25224SOL     OW77112   7.007   3.476  10.798  0.3381  0.4756 -0.2581
25224SOL    HW177113   7.100   3.467  10.776  0.2007  0.2597 -0.7449
25224SOL    HW277114   6.976   3.547  10.742  0.1728  0.4402 -0.2118
25225SOL     OW77115   0.753   6.582  10.754 -0.1469  0.0919  0.3823
25225SOL    HW177116   0.834   6.621  10.787 -0.3242  1.4077 -0.6567
25225SOL    HW277117   0.744   6.500  10.803  1.8163 -0.0919  0.5155
25226SOL     OW77118   4.706   3.056   3.902 -0.2586 -0.1478 -0.0235
25226SOL    HW177119   4.622   3.092   3.876 -0.3256 -0.6750 -0.5511
25226SOL    HW277120   4.699   2.963   3.883  1.6828  0.2461 -3.5232
25227SOL     OW77121   2.996   5.320   6.227 -0.0991  0.2865  0.4099
25227SOL    HW177122   3.001   5.416   6.228 -1.0113  0.3561 -0.2709
25227SOL    HW277123   3.016   5.294   6.317  0.8608  1.0665  0.4414
25228SOL     OW77124   2.064   7.544   9.373  0.1468 -0.8146  0.2351
25228SOL    HW177125   2.092   7.610   9.309 -0.8102 -1.0295 -0.4369
25228SOL    HW277126   2.143   7.520   9.419  0.4671  1.1619  0.8242
25229SOL     OW77127   4.391   2.039   7.582  0.0249 -0.4325 -0.5340
25229SOL    HW177128   4.368   1.947   7.593  0.0488 -0.5373 -1.3010
25229SOL    HW277129   4.360   2.061   7.494  0.5563  0.1225 -0.5870
25230SOL     OW77130   4.424   0.066  12.398  0.6196  0.1050  0.8190
25230SOL    HW177131   4.441   0.059  12.304 -0.6504 -0.9274  0.6193
25230SOL    HW277132   4.414   0.160  12.414  1.2014  0.3202 -0.0019
25231SOL     OW77133   3.769   3.985  10.937  0.3506 -0.2923 -0.3962
25231SOL    HW177134   3.706   4.046  10.901  0.4132  1.5736  2.3397
25231SOL    HW277135   3.716   3.912  10.971 -0.4297  1.1086  1.5912
25232SOL     OW77136   4.397   0.564   0.125  0.0492  0.6726 -0.0311
25232SOL    HW177137   4.447   0.549   0.206 -0.4985  0.7847  0.3291
25232SOL    HW277138   4.396   0.659   0.114 -1.0391  0.7484  0.5780
25233SOL     OW77139   1.423   1.062   6.444 -0.3310 -0.5723  0.5988
25233SOL    HW177140   1.416   1.027   6.533 -1.4742 -0.4011  0.5890
25233SOL    HW277141   1.370   1.142   6.445  1.8058  0.9219  0.4727
25234SOL     OW77142   1.066   3.378   9.484 -0.7299  0.0410 -0.4093
25234SOL    HW177143   1.026   3.375   9.398 -1.3600  0.1631 -0.1290
25234SOL    HW277144   0.993   3.362   9.545 -0.1273 -1.0066  0.0563
25235SOL     OW77145   0.250   5.004   9.886  0.9474 -0.7465  0.1755
25235SOL    HW177146   0.172   4.952   9.902  0.5815  0.2143  1.7497
25235SOL    HW277147   0.232   5.088   9.928  2.0508  0.1963 -1.1428
25236SOL     OW77148   5.842   4.909   4.576 -0.3191  0.3463 -0.0820
25236SOL    HW177149   5.888   4.825   4.577  0.0797  0.5263 -1.5315
25236SOL    HW277150   5.813   4.921   4.666  0.9828 -0.6018  0.4992
25237SOL     OW77151   1.945   4.896   4.053  0.0702  0.0484 -0.1306
25237SOL    HW177152   2.025   4.943   4.077  0.7639 -1.7744  1.3255
25237SOL    HW277153   1.907   4.869   4.137  0.1815 -2.7051 -0.8732
25238SOL     OW77154   4.701   7.322   6.521 -1.0396  0.2056 -0.0454
25238SOL    HW177155   4.698   7.238   6.475  0.7211  0.0757  0.0085
25238SOL    HW277156   4.793   7.336   6.540 -1.3611  1.8671  0.5102
25239SOL     OW77157   2.842   0.015   2.737  0.0059  0.4288 -0.0948
25239SOL    HW177158   2.883   0.094   2.701  1.9357 -0.4894 -0.0129
25239SOL    HW277159   2.916  -0.040   2.764 -1.3006 -1.4000 -0.1103
25240SOL     OW77160   3.352   0.973  10.038  0.3286  0.3891 -0.1020
25240SOL    HW177161   3.391   0.967  10.125  1.0509  0.7856 -0.3854
25240SOL    HW277162   3.284   1.040  10.046 -1.5984 -1.5596  0.8458
25241SOL     OW77163   5.373   2.019   5.067 -0.2694 -0.2129  0.1920
25241SOL    HW177164   5.344   2.062   5.148 -0.7082 -2.0162  1.0415
25241SOL    HW277165   5.292   1.993   5.024 -0.0335  0.7191 -0.8597
25242SOL     OW77166   7.229   5.340   2.902 -0.6054  0.2516  0.1021
25242SOL    HW177167   7.265   5.327   2.990  0.4223 -1.8972 -0.5713
25242SOL    HW277168   7.149   5.391   2.916 -0.4579 -0.0341  2.2743
25243SOL     OW77169   0.140   5.054   2.326 -0.3570  0.1166  0.1505
25243SOL    HW177170   0.141   4.969   2.282  0.0793 -0.4522  1.2139
25243SOL    HW277171   0.202   5.044   2.398  0.3495  1.6204 -0.2094
25244SOL     OW77172   6.277   3.621  11.421  0.2913 -0.1868  0.4919
25244SOL    HW177173   6.227   3.660  11.493  0.1209 -0.0493  0.2998
25244SOL    HW277174   6.359   3.593  11.462  1.0857  1.7421  0.3601
25245SOL     OW77175   6.415   0.478   2.260  0.0613 -0.0021 -0.2077
25245SOL    HW177176   6.334   0.522   2.232 -0.0409 -0.2849 -0.3617
25245SOL    HW277177   6.428   0.409   2.195 -0.1980 -0.6967  0.4633
25246SOL     OW77178   4.679   6.000   0.576  0.1742 -0.2619  0.0190
25246SOL    HW177179   4.727   6.071   0.619  0.6758 -0.4749 -0.1733
25246SOL    HW277180   4.587   6.026   0.582  0.2979  0.0805  0.5374
25247SOL     OW77181   3.209   2.048   5.528 -0.2518 -0.0707  0.0012
25247SOL    HW177182   3.132   2.074   5.578  0.1658  0.0469  0.5955
25247SOL    HW277183   3.246   1.975   5.577 -0.5841 -0.8407 -0.8662
25248SOL     OW77184   0.415   6.348   9.398  0.1044  0.7333 -0.5169
25248SOL    HW177185   0.332   6.347   9.446  0.3981 -3.4423  0.2621
25248SOL    HW277186   0.389   6.353   9.306 -0.9185  0.6427 -0.2546
25249SOL     OW77187   7.302   4.006   9.815 -0.0055 -0.0360  0.3014
25249SOL    HW177188   7.349   4.081   9.849 -1.0303  1.0399 -0.5678
25249SOL    HW277189   7.345   3.985   9.732 -0.9905  0.9227 -0.4729
25250SOL     OW77190   3.416   0.962   7.056 -0.1030 -0.1554 -0.2247
25250SOL    HW177191   3.402   1.055   7.039 -0.0598 -0.0779  0.1544
25250SOL    HW277192   3.506   0.956   7.088 -0.5478 -0.1368  1.0844
25251SOL     OW77193   4.648   6.956  11.648  0.1900  0.0887 -0.3404
25251SOL    HW177194   4.578   7.007  11.689  0.3075  1.1261 -1.3763
25251SOL    HW277195   4.639   6.868  11.685  0.1956  0.9152  1.7630
25252SOL     OW77196   6.620   1.298   1.676  0.0507 -0.2673 -0.1872
25252SOL    HW177197   6.694   1.352   1.651 -0.3529 -0.0460 -0.9279
25252SOL    HW277198   6.636   1.214   1.633 -0.5002  0.0206 -0.9622
25253SOL     OW77199   3.797   2.194   5.244 -0.4517 -0.0770 -0.2058
25253SOL    HW177200   3.749   2.156   5.318 -0.6220  0.5961  0.0308
25253SOL    HW277201   3.853   2.122   5.213 -1.8894 -1.0160 -0.7431
25254SOL     OW77202   1.454   4.626   4.698  0.0252 -0.4528  0.1098
25254SOL    HW177203   1.547   4.613   4.682  0.2963  0.6534  0.7127
25254SOL    HW277204   1.411   4.586   4.623  1.0382  0.0880 -0.7782
25255SOL     OW77205   0.386   2.096   4.970 -0.4824 -1.1660 -0.0740
25255SOL    HW177206   0.299   2.126   4.946  0.2398 -0.5365 -2.0899
25255SOL    HW277207   0.385   2.094   5.066 -2.2001  0.3418 -0.0076
25256SOL     OW77208   6.968   0.233  10.288 -0.6882  0.1007 -0.3688
25256SOL    HW177209   7.045   0.228  10.232  0.0864  0.4087  0.6380
25256SOL    HW277210   6.936   0.322  10.277  0.0014  0.4472  0.3537
25257SOL     OW77211   2.138   7.008   8.076 -0.6872  0.0076  0.5229
25257SOL    HW177212   2.211   7.008   8.138 -0.4851  0.4945  0.2908
25257SOL    HW277213   2.129   6.917   8.049  1.2121  0.2361 -1.0664
25258SOL     OW77214   0.771   7.625  10.532 -0.4598 -0.1165 -0.1160
25258SOL    HW177215   0.769   7.703  10.586 -0.2778  0.1546 -0.4942
25258SOL    HW277216   0.782   7.553  10.594 -1.9744  0.0204  0.3571
25259SOL     OW77217   0.819   2.757   4.879 -1.1951 -0.3604  0.3546
25259SOL    HW177218   0.745   2.812   4.853 -0.2451  0.0448 -1.6479
25259SOL    HW277219   0.839   2.785   4.968 -1.1055  2.1585 -0.3901
25260SOL     OW77220   7.685   2.586   4.084  0.0069 -0.4918  0.2707
25260SOL    HW177221   7.718   2.668   4.121 -0.8286 -0.4574  1.0013
25260SOL    HW277222   7.760   2.527   4.084  1.0957  0.7758 -1.9454
25261SOL     OW77223   2.620   5.304   6.729  0.5966 -0.3448  0.8014
25261SOL    HW177224   2.697   5.264   6.770 -0.0174  0.8113  3.2857
25261SOL    HW277225   2.632   5.398   6.742 -0.4442 -0.0409 -0.2593
25262SOL     OW77226   6.077   0.152   1.997 -0.4044  0.0468  0.3889
25262SOL    HW177227   5.988   0.181   1.977 -0.7814 -0.5088  1.2082
25262SOL    HW277228   6.099   0.196   2.079  0.5879  1.2054 -0.4630
25263SOL     OW77229   5.842   0.929   1.252  0.2390 -0.3313 -0.0362
25263SOL    HW177230   5.814   0.867   1.318  0.8961 -1.1398 -0.4939
25263SOL    HW277231   5.826   0.885   1.169  0.7009  0.1141 -0.3693
25264SOL     OW77232   5.509   4.915   4.943 -0.3510 -0.2810  0.5025
25264SOL    HW177233   5.419   4.884   4.935 -1.0698  1.5184  1.1472
25264SOL    HW277234   5.508   4.973   5.020  1.4871 -0.6479  0.8547
25265SOL     OW77235   2.889   2.986   8.099 -0.7622 -0.1474  0.0956
25265SOL    HW177236   2.816   2.946   8.146 -0.3085  0.2061  1.1416
25265SOL    HW277237   2.960   2.989   8.164 -0.9671  2.9567  0.3065
25266SOL     OW77238   3.654   0.459   3.891  0.3609  0.3260  0.3600
25266SOL    HW177239   3.675   0.390   3.954  0.7477 -0.3940 -0.5388
25266SOL    HW277240   3.670   0.540   3.939  0.3968 -0.2031  1.2702
25267SOL     OW77241   5.573   3.077   3.650  0.4608 -0.0509 -0.0341
25267SOL    HW177242   5.667   3.091   3.657  0.5481 -0.9994  0.9271
25267SOL    HW277243   5.545   3.139   3.582  2.0231 -0.9117 -1.5451
25268SOL     OW77244   7.732   6.456  11.021  0.5275 -0.2773 -0.1936
25268SOL    HW177245   7.640   6.456  11.045  0.7998 -0.4894  0.9218
25268SOL    HW277246   7.778   6.482  11.101  1.3632  1.1549 -1.0833
25269SOL     OW77247   2.653   7.368   9.250  0.0396  0.1193 -0.4634
25269SOL    HW177248   2.607   7.422   9.314  3.3166  0.5295  1.7841
25269SOL    HW277249   2.618   7.280   9.263 -0.8644  0.5819  0.3788
25270SOL     OW77250   1.902   6.126   2.761 -0.5935  0.3224  0.1704
25270SOL    HW177251   1.928   6.053   2.818 -0.3867  0.5786  0.4057
25270SOL    HW277252   1.930   6.204   2.808  0.1808  0.5133 -0.5939
25271SOL     OW77253   6.884   4.516  10.845 -0.6545  0.2213 -0.0655
25271SOL    HW177254   6.804   4.554  10.882 -0.2278  0.4770  0.5945
25271SOL    HW277255   6.936   4.491  10.921 -0.5582 -0.9309 -0.4858
25272SOL     OW77256   4.447   4.153   6.219 -0.2442 -0.4857 -0.2766
25272SOL    HW177257   4.355   4.179   6.218 -0.3462 -0.6710  1.0946
25272SOL    HW277258   4.445   4.061   6.245  0.2965 -0.7022 -0.9837
25273SOL     OW77259   5.122   5.496   1.979 -0.2966 -0.5464 -0.4185
25273SOL    HW177260   5.167   5.415   2.005  0.6823 -0.4961 -1.8026
25273SOL    HW277261   5.036   5.467   1.949  0.7348 -1.4052 -2.7970
25274SOL     OW77262   7.021   6.140   6.341  0.0626 -0.0612 -0.4570
25274SOL    HW177263   6.939   6.134   6.293  0.6719 -0.0330 -1.5434
25274SOL    HW277264   6.996   6.144   6.433 -1.1999  1.1185 -0.8278
25275SOL     OW77265   0.176   2.082   9.880  0.3159 -0.4920 -0.1691
25275SOL    HW177266   0.127   2.066   9.961 -0.2277 -0.0786 -0.4017
25275SOL    HW277267   0.260   2.117   9.909 -0.6738  1.7923  0.2165
25276SOL     OW77268   6.654   4.987   7.439  0.1103  0.5268  0.2279
25276SOL    HW177269   6.644   4.990   7.343  1.0927 -0.6189  0.0696
25276SOL    HW277270   6.569   4.956   7.470  0.5602 -1.5494 -0.4866
25277SOL     OW77271   3.146   1.803  11.852  0.9051 -0.0160  0.8144
25277SOL    HW177272   3.128   1.710  11.842  1.6904 -0.4265  2.7948
25277SOL    HW277273   3.077   1.835  11.910  0.7981  0.5949  0.3680
25278SOL     OW77274   7.654   1.009   0.031  0.3983 -0.1340  0.3585
25278SOL    HW177275   7.679   0.917   0.041 -1.4847 -0.7070  0.2241
25278SOL    HW277276   7.682   1.051   0.112 -0.6307 -1.3165  1.3689
25279SOL     OW77277   3.200   6.441  11.613  0.5210 -0.6271  0.1430
25279SOL    HW177278   3.135   6.467  11.679  0.8094  0.8947 -0.1235
25279SOL    HW277279   3.216   6.348  11.630 -1.3486 -0.9313  0.5363
25280SOL     OW77280   4.885   7.276   7.538 -0.7074 -0.0815 -0.2119
25280SOL    HW177281   4.912   7.285   7.446  1.6319 -0.2324  0.3965
25280SOL    HW277282   4.793   7.249   7.533 -1.2974  1.9023 -2.4551
25281SOL     OW77283   2.617   4.940   9.890 -0.0448  0.2320 -0.5833
25281SOL    HW177284   2.685   4.985   9.941  1.1598 -2.2926  0.2249
25281SOL    HW277285   2.542   4.937   9.949 -0.4589  1.8434 -0.9722
25282SOL     OW77286   2.580   5.015   3.411 -0.4650 -0.6353 -0.6974
25282SOL    HW177287   2.614   4.937   3.366  0.0104 -1.6690  1.3416
25282SOL    HW277288   2.498   4.986   3.451 -0.3337 -0.0807  0.0017
25283SOL     OW77289   6.845   5.099   9.664  0.6998  0.4785 -0.4374
25283SOL    HW177290   6.903   5.082   9.590 -0.6516  3.6459 -2.4696
25283SOL    HW277291   6.763   5.054   9.641  1.0164 -0.6048  0.4410
25284SOL     OW77292   4.850   3.824   2.690  0.4299  0.0949  0.5287
25284SOL    HW177293   4.811   3.761   2.630  0.8603  2.2819 -2.2534
25284SOL    HW277294   4.935   3.786   2.713  0.4769 -0.5910 -0.6918
25285SOL     OW77295   1.794   5.993  10.119  0.2980  0.4125 -0.0522
25285SOL    HW177296   1.800   5.899  10.133  0.2205  0.2981 -0.7695
25285SOL    HW277297   1.885   6.023  10.121  0.2438  0.5682  1.7195
25286SOL     OW77298   5.425   4.890   1.475  0.1806 -0.0988  0.0246
25286SOL    HW177299   5.404   4.952   1.405 -0.4267  0.5040  0.7364
25286SOL    HW277300   5.343   4.843   1.491  0.1510  0.1871  0.7443
25287SOL     OW77301   6.180   7.110   1.911 -0.3130 -0.3198  0.3260
25287SOL    HW177302   6.160   7.203   1.911  0.3442 -0.0828 -2.4878
25287SOL    HW277303   6.097   7.067   1.933 -1.9234  0.8683 -2.7968
25288SOL     OW77304   2.967   7.138   3.131 -0.4846  0.1997 -0.0635
25288SOL    HW177305   3.063   7.141   3.127 -0.4022  0.0694  1.4252
25288SOL    HW277306   2.939   7.226   3.105  0.1011  0.6672  0.8669
25289SOL     OW77307   6.232   4.771   5.686 -0.9592 -0.1660  0.5024
25289SOL    HW177308   6.268   4.778   5.774 -0.5501  1.9716  0.2063
25289SOL    HW277309   6.224   4.677   5.671 -1.6829 -0.5859  3.0666
25290SOL     OW77310   0.554   0.359   5.837  0.0052 -0.4997  0.5157
25290SOL    HW177311   0.473   0.340   5.885  0.0057  1.4683  1.3844
25290SOL    HW277312   0.623   0.337   5.899  0.0197  1.2932  1.1991
25291SOL     OW77313   4.297   1.665   8.081  0.0459 -0.1993 -0.1037
25291SOL    HW177314   4.363   1.682   8.014  0.3775 -0.8374  0.0531
25291SOL    HW277315   4.333   1.704   8.161 -0.2136  0.3018 -0.2301
25292SOL     OW77316   0.194   3.972   9.466  0.2642 -0.0304 -0.4277
25292SOL    HW177317   0.156   3.931   9.388  0.0951 -1.1848  0.2521
25292SOL    HW277318   0.158   3.923   9.539  1.5416  0.1208  0.3261
25293SOL     OW77319   6.708   7.436   9.096 -0.3366  0.1759 -0.1408
25293SOL    HW177320   6.683   7.431   9.188 -2.0816 -0.4820 -0.6095
25293SOL    HW277321   6.683   7.524   9.069  1.3099  0.8008  0.2954
25294SOL     OW77322   2.225   7.502   7.345 -0.2852  0.4950 -0.1711
25294SOL    HW177323   2.302   7.450   7.366  0.1438  0.6555 -1.2856
25294SOL    HW277324   2.158   7.472   7.407  0.1771 -0.8408 -0.2853
25295SOL     OW77325   7.208   1.410   3.686  0.2186 -0.1352 -0.6831
25295SOL    HW177326   7.209   1.408   3.590 -1.1927 -0.9559 -0.7033
25295SOL    HW277327   7.239   1.323   3.711 -0.3410 -0.2546 -0.4100
25296SOL     OW77328   3.803   1.783  11.699 -0.0377  0.2957  0.0333
25296SOL    HW177329   3.897   1.803  11.689  0.2029 -1.0041 -0.5079
25296SOL    HW277330   3.799   1.687  11.697 -1.3905  0.3407  0.0304
25297SOL     OW77331   1.124   1.143   9.936 -0.5548  0.3079 -0.3278
25297SOL    HW177332   1.086   1.133  10.023 -0.0964 -0.2272 -0.1833
25297SOL    HW277333   1.057   1.190   9.886 -1.9340 -1.5918 -0.3848
25298SOL     OW77334   5.549   0.322   8.246 -0.9434  0.4615 -0.2699
25298SOL    HW177335   5.595   0.380   8.307 -0.9971 -0.2473  0.4609
25298SOL    HW277336   5.619   0.274   8.202 -0.9176  0.6706 -0.4547
25299SOL     OW77337   0.524   0.034  11.862  0.8179 -0.3333 -0.1560
25299SOL    HW177338   0.455   0.096  11.882  1.5872  0.5499 -0.1895
25299SOL    HW277339   0.527  -0.024  11.939  1.0750  0.5859  0.5517
25300SOL     OW77340   1.037   4.388   7.298 -0.4116 -0.3638  0.8191
25300SOL    HW177341   0.972   4.457   7.284 -0.9475 -0.8307  0.9192
25300SOL    HW277342   1.039   4.377   7.393 -1.4307 -1.4822  0.7412
25301SOL     OW77343   1.650   1.054   4.564  0.7249  0.1971 -0.9106
25301SOL    HW177344   1.663   1.097   4.648  1.0140 -1.0935 -0.2637
25301SOL    HW277345   1.640   0.961   4.586 -0.2587 -0.0325 -2.2140
25302SOL     OW77346   3.051   5.233  10.318 -0.3376  0.0446 -0.0980
25302SOL    HW177347   3.134   5.280  10.313 -0.6348  0.6860  0.7691
25302SOL    HW277348   3.022   5.245  10.408 -0.0532 -2.4650  0.3992
25303SOL     OW77349   6.256   7.053   9.216  0.3775 -0.0126  0.4210
25303SOL    HW177350   6.275   6.995   9.290 -0.4529  0.0511  0.6899
25303SOL    HW277351   6.332   7.043   9.159 -0.3626 -2.4947 -0.2579
25304SOL     OW77352   6.877   1.711   4.721 -0.3276  0.2357 -0.1775
25304SOL    HW177353   6.794   1.748   4.753 -0.1638  0.2663  0.2105
25304SOL    HW277354   6.859   1.688   4.629 -1.4496 -1.8147  0.4971
25305SOL     OW77355   7.084   1.174   4.324 -0.1447 -0.3824 -0.1219
25305SOL    HW177356   7.057   1.265   4.333 -2.3827 -0.8062 -1.7217
25305SOL    HW277357   7.014   1.124   4.366  1.1861 -1.4049  0.9871
25306SOL     OW77358   3.143   2.470   0.118  0.3281 -0.0241 -0.0973
25306SOL    HW177359   3.233   2.501   0.128  0.5886  0.1035 -2.2274
25306SOL    HW277360   3.145   2.380   0.150  0.8845  0.4003  1.0979
25307SOL     OW77361   2.543   2.591   4.734  0.1351 -0.2992 -0.4021
25307SOL    HW177362   2.613   2.526   4.723 -1.2182 -1.8483 -0.1539
25307SOL    HW277363   2.574   2.668   4.686  2.0171 -0.9215 -0.2603
25308SOL     OW77364   1.624   0.985   3.341  0.2601  0.3320  0.0371
25308SOL    HW177365   1.701   0.981   3.399 -0.1334  0.9728  0.6174
25308SOL    HW277366   1.646   0.926   3.268  0.2314 -1.5749  1.4746
25309SOL     OW77367   5.071   0.848   4.103  0.0754  0.0225  0.5441
25309SOL    HW177368   5.109   0.852   4.191 -0.0050 -0.2516  0.5924
25309SOL    HW277369   5.115   0.775   4.060 -0.4397 -0.3469  0.6279
25310SOL     OW77370   7.018   0.971   8.840  0.2849  0.6345 -0.6016
25310SOL    HW177371   7.099   1.015   8.814  0.8187  0.2008  0.2609
25310SOL    HW277372   6.983   0.933   8.760  2.1185 -1.0827 -0.6414
25311SOL     OW77373   3.354   4.816   1.209 -0.1262 -0.3486 -0.1539
25311SOL    HW177374   3.439   4.837   1.170  0.0829  0.6106  0.7761
25311SOL    HW277375   3.295   4.808   1.134  0.5515  0.0941 -0.7490
25312SOL     OW77376   4.463   4.609   9.597  0.2009 -0.8116 -0.0382
25312SOL    HW177377   4.551   4.577   9.618  0.0318 -1.0774  0.2712
25312SOL    HW277378   4.470   4.704   9.602  0.8447 -0.7644 -1.5134
25313SOL     OW77379   2.393   3.570  11.394 -0.0166  0.3751  0.7945
25313SOL    HW177380   2.443   3.599  11.317 -0.0636 -1.2634  0.1035
25313SOL    HW277381   2.302   3.570  11.366  0.1063 -2.0420  0.1499
25314SOL     OW77382   4.152   4.897   8.406 -0.2199  0.3330 -0.5030
25314SOL    HW177383   4.127   4.926   8.493 -1.2921  2.1191 -1.3402
25314SOL    HW277384   4.178   4.806   8.417 -1.2331  0.2420  1.5036
25315SOL     OW77385   1.398   4.680   1.375 -0.2090  0.1608 -0.2066
25315SOL    HW177386   1.468   4.624   1.344  0.0385  0.1109  0.4223
25315SOL    HW277387   1.339   4.621   1.422 -0.5709  0.2348 -0.5653
25316SOL     OW77388   0.418   4.639   0.690 -0.0938 -0.0611  0.5396
25316SOL    HW177389   0.497   4.621   0.740  0.0725  1.0990  0.7196
25316SOL    HW277390   0.348   4.640   0.755  0.3438  3.1428  1.1223
25317SOL     OW77391   3.277   6.953   2.873  0.7186 -0.1281 -0.3710
25317SOL    HW177392   3.370   6.933   2.867  1.2281  1.5630  0.9713
25317SOL    HW277393   3.235   6.868   2.887  2.3968 -0.6849  2.0181
25318SOL     OW77394   3.100   1.268   4.841 -0.6243 -0.3277 -0.1936
25318SOL    HW177395   3.133   1.272   4.931 -2.9162 -2.1506  0.8292
25318SOL    HW277396   3.043   1.344   4.832 -0.3589 -0.1210 -0.1242
25319SOL     OW77397   4.515   1.335  10.433 -0.0037  0.1607  0.6861
25319SOL    HW177398   4.601   1.378  10.432 -0.0429  0.2504  1.0061
25319SOL    HW277399   4.503   1.308  10.524  0.6656 -1.8570  0.2291
25320SOL     OW77400   1.146   7.179   0.399  0.1941  0.1831 -0.2464
25320SOL    HW177401   1.126   7.194   0.307  0.1795  2.2961  0.0407
25320SOL    HW277402   1.074   7.124   0.430  0.0108 -0.2633 -1.4142
25321SOL     OW77403   4.734   0.665   5.890 -0.0820 -0.0595  0.4065
25321SOL    HW177404   4.776   0.672   5.976 -0.8231 -0.4422  0.8050
25321SOL    HW277405   4.671   0.594   5.899 -0.1607 -0.1169 -0.4642
25322SOL     OW77406   1.080   5.946  12.435 -0.3077 -0.0678 -0.1998
25322SOL    HW177407   1.098   5.853  12.425  0.1864  0.1000 -0.8618
25322SOL    HW277408   0.985   5.953  12.421 -0.4199 -0.5203  0.2756
25323SOL     OW77409   7.583   2.246  10.513  0.0853  0.4155  0.2219
25323SOL    HW177410   7.672   2.211  10.507  0.1036  0.5710 -0.5150
25323SOL    HW277411   7.528   2.171  10.537 -0.1146 -0.5258 -2.7778
25324SOL     OW77412   4.402   5.873   6.525 -0.1448 -0.1530  0.1027
25324SOL    HW177413   4.411   5.779   6.505 -0.2984 -0.0538 -0.4580
25324SOL    HW277414   4.326   5.900   6.473 -0.4315  0.1663  0.6811
25325SOL     OW77415   0.481   4.446   8.151  0.0338 -0.0530 -0.0283
25325SOL    HW177416   0.409   4.389   8.177  0.3261 -0.0077  0.9233
25325SOL    HW277417   0.550   4.386   8.123  0.8266 -0.2762  2.2175
25326SOL     OW77418   6.451   0.157   2.971  0.0802  0.2619  0.0927
25326SOL    HW177419   6.382   0.130   2.911  0.9621  0.1378 -0.8933
25326SOL    HW277420   6.492   0.075   2.999  0.2365  0.3630  0.1625
25327SOL     OW77421   6.367   3.773  10.244 -0.1188 -0.2782 -0.4256
25327SOL    HW177422   6.274   3.791  10.232  0.1274  1.0569 -0.5116
25327SOL    HW277423   6.377   3.758  10.338 -0.6784 -2.2481 -0.6282
25328SOL     OW77424   4.022   6.835  10.426 -0.0213  0.4605 -0.3401
25328SOL    HW177425   3.996   6.900  10.360  0.3477 -0.7113 -1.6785
25328SOL    HW277426   4.085   6.882  10.481  1.1524  0.9407 -1.9912
25329SOL     OW77427   7.813   4.872   4.515  0.5230  0.5023  0.3941
25329SOL    HW177428   7.861   4.947   4.552  0.1020  0.7593  0.4216
25329SOL    HW277429   7.765   4.909   4.441 -0.7249  0.5462  1.1904
25330SOL     OW77430   5.684   1.372   9.192 -0.0980  0.6997 -0.2283
25330SOL    HW177431   5.691   1.277   9.192 -1.8385  0.5333  0.3075
25330SOL    HW277432   5.702   1.397   9.101 -0.8962 -0.2799 -0.6758
25331SOL     OW77433   6.518   0.914   3.592 -0.7511  0.3487 -0.2303
25331SOL    HW177434   6.511   0.964   3.511 -2.5081  0.9362  0.2349
25331SOL    HW277435   6.427   0.906   3.623 -0.2195 -0.7617  1.1310
25332SOL     OW77436   0.035   5.137   7.519  0.3114 -0.4399  0.7712
25332SOL    HW177437  -0.055   5.156   7.545  0.9739  2.2266  1.4007
25332SOL    HW277438   0.027   5.065   7.456 -2.2592 -0.0638  0.5551
25333SOL     OW77439   0.028   6.124   5.093 -0.5265  0.5077  0.2514
25333SOL    HW177440  -0.038   6.081   5.148 -1.6043 -1.4402 -2.3353
25333SOL    HW277441  -0.012   6.207   5.069 -0.2919  1.1137  1.8523
25334SOL     OW77442   7.922   5.628   0.904 -0.1533  0.0600 -0.0852
25334SOL    HW177443   7.977   5.561   0.944  0.7900  0.5043 -0.6070
25334SOL    HW277444   7.832   5.596   0.915  0.1800 -0.4753  1.1437
25335SOL     OW77445   4.505   2.444  10.157  0.3767 -0.1445 -0.2703
25335SOL    HW177446   4.490   2.536  10.137  0.1797 -0.1992 -0.3750
25335SOL    HW277447   4.419   2.410  10.180  0.0334 -0.8287 -2.3849
25336SOL     OW77448   5.361   1.663  10.059 -0.2818  0.0634  0.0729
25336SOL    HW177449   5.313   1.657  10.142 -0.6748  0.0025 -0.1576
25336SOL    HW277450   5.297   1.696   9.997 -0.6395 -1.9962 -0.7352
25337SOL     OW77451   2.473   5.025   0.539  0.6015 -0.4722 -0.1011
25337SOL    HW177452   2.563   5.052   0.520  0.5178  1.2783  1.6823
25337SOL    HW277453   2.437   5.096   0.593 -1.5485 -1.5825  0.0507
25338SOL     OW77454   5.786   6.974   2.607 -0.6081 -0.3280  0.0218
25338SOL    HW177455   5.862   6.991   2.551  1.1027  0.1710  2.3150
25338SOL    HW277456   5.751   7.061   2.626 -3.1034 -0.6259 -2.5799
25339SOL     OW77457   1.220   2.041   7.376 -0.0646  0.0964 -0.3004
25339SOL    HW177458   1.191   1.988   7.450  0.3459 -0.8632 -0.8101
25339SOL    HW277459   1.140   2.083   7.343 -0.4187 -0.3150  0.0290
25340SOL     OW77460   5.607   7.073   9.956 -0.4735  0.6374 -0.2246
25340SOL    HW177461   5.520   7.038   9.976 -0.3111  0.6713  0.5797
25340SOL    HW277462   5.591   7.161   9.924 -0.7003  0.8373  0.4376
25341SOL     OW77463   5.831   1.193   3.358 -0.1942 -0.2179  0.2947
25341SOL    HW177464   5.805   1.133   3.289  0.5953  0.6566 -0.7922
25341SOL    HW277465   5.756   1.195   3.418 -1.5673  0.2207 -1.3708
25342SOL     OW77466   6.906   2.322  12.165  0.0063 -0.1709  0.1081
25342SOL    HW177467   6.926   2.360  12.250 -2.0531  2.1885 -0.3343
25342SOL    HW277468   6.948   2.381  12.102  0.2463 -1.0323 -0.5541
25343SOL     OW77469   5.732   2.158   9.986  0.2119 -0.5983  0.7082
25343SOL    HW177470   5.802   2.216  10.016 -0.7759  0.6108  0.7532
25343SOL    HW277471   5.673   2.215   9.937  0.3099 -1.9916 -1.1311
25344SOL     OW77472   7.093   3.254   9.823 -0.3305  0.3043  0.0323
25344SOL    HW177473   7.046   3.182   9.781 -0.3006  0.2967  0.0118
25344SOL    HW277474   7.089   3.325   9.759 -1.0355  0.5788  0.3795
25345SOL     OW77475   1.649   0.577   7.575  0.6822 -0.1142  0.0345
25345SOL    HW177476   1.559   0.544   7.574 -0.0495  1.7259 -1.7269
25345SOL    HW277477   1.663   0.610   7.486  3.2074 -0.5727  0.2022
25346SOL     OW77478   4.524   5.142   9.753  0.5208 -0.0138  0.6336
25346SOL    HW177479   4.474   5.104   9.825 -0.0305  0.0128  0.2675
25346SOL    HW277480   4.461   5.154   9.682  0.7789  1.1519  0.5750
25347SOL     OW77481   1.512   1.578   7.873  0.1366 -0.4387  0.7168
25347SOL    HW177482   1.583   1.535   7.824  0.7289  1.9973 -0.7096
25347SOL    HW277483   1.454   1.613   7.805  0.0096  1.5071  1.7750
25348SOL     OW77484   3.846   2.392   5.536 -0.1792  0.1711 -0.4021
25348SOL    HW177485   3.823   2.388   5.443 -0.3014 -1.1757 -0.3332
25348SOL    HW277486   3.851   2.300   5.563 -0.1918  0.5525  0.9372
25349SOL     OW77487   4.368   2.237   9.293 -0.9981  0.4767 -0.6326
25349SOL    HW177488   4.403   2.229   9.204  0.6964  0.5608 -0.0258
25349SOL    HW277489   4.369   2.331   9.310 -1.5648  0.4794 -0.6133
25350SOL     OW77490   1.900   4.313   0.959  0.3968  0.8258  0.4584
25350SOL    HW177491   1.901   4.221   0.985  0.7106  1.0648  1.3021
25350SOL    HW277492   1.808   4.330   0.938  0.5598 -0.0785 -1.2225
25351SOL     OW77493   6.733   3.195   9.986 -0.1653 -0.1680  0.3633
25351SOL    HW177494   6.749   3.258   9.916 -0.7913 -0.3335  0.0667
25351SOL    HW277495   6.643   3.165   9.972 -0.5763  0.3780  1.6951
25352SOL     OW77496   7.596   7.119   6.335 -0.8310 -0.1833 -0.5500
25352SOL    HW177497   7.551   7.203   6.331 -1.1387 -0.3809 -1.9170
25352SOL    HW277498   7.525   7.055   6.346 -0.6426 -0.3145 -0.0418
25353SOL     OW77499   7.929   6.349   3.222 -0.0740  0.3667 -0.6364
25353SOL    HW177500   7.945   6.443   3.211  0.0983  0.1150 -3.1566
25353SOL    HW277501   8.016   6.309   3.219 -0.3153 -0.1073 -3.2048
25354SOL     OW77502   7.238   7.412   4.434 -0.6054 -0.0795 -0.1180
25354SOL    HW177503   7.275   7.323   4.425  0.0609  0.1008  0.6873
25354SOL    HW277504   7.214   7.418   4.526 -2.8142 -0.2233 -0.6428
25355SOL     OW77505   3.502   4.450   3.602  0.1135  0.2150 -0.4240
25355SOL    HW177506   3.484   4.366   3.559  1.7500 -0.0835 -0.6010
25355SOL    HW277507   3.545   4.425   3.684  1.1566  0.8889 -0.7593
25356SOL     OW77508   7.922   7.058   3.748 -0.0217 -0.1615 -0.3996
25356SOL    HW177509   7.993   6.997   3.731  0.3725  0.4872 -1.1868
25356SOL    HW277510   7.957   7.119   3.813 -1.3616 -2.3485  2.6162
25357SOL     OW77511   3.785   7.031   4.319  0.4747 -0.0770 -0.1282
25357SOL    HW177512   3.706   7.086   4.314 -0.9237 -2.0246 -0.6499
25357SOL    HW277513   3.847   7.073   4.260 -1.7423 -0.7996 -3.2748
25358SOL     OW77514   3.243   1.832   8.794  0.0049  0.4803 -0.2038
25358SOL    HW177515   3.262   1.744   8.762 -0.8636 -0.3299  1.3738
25358SOL    HW277516   3.206   1.878   8.719 -0.3526 -0.7711 -0.8210
25359SOL     OW77517   0.866   4.798   2.818 -0.0032  0.3850 -0.7261
25359SOL    HW177518   0.948   4.790   2.866 -0.6234  1.5499  0.5836
25359SOL    HW277519   0.804   4.834   2.881 -1.5828 -0.5920 -1.6309
25360SOL     OW77520   6.176   7.369  10.682  0.3532 -0.6219  0.3853
25360SOL    HW177521   6.184   7.326  10.597  1.7473 -2.7009  1.4888
25360SOL    HW277522   6.157   7.460  10.661 -0.9187 -1.3656 -2.1069
25361SOL     OW77523   0.738   3.051   8.014  0.2308 -0.2719  0.3194
25361SOL    HW177524   0.767   3.142   8.009  3.2783 -1.1806 -0.6649
25361SOL    HW277525   0.710   3.030   7.925  1.0170 -0.7123  0.1699
25362SOL     OW77526   5.380   7.082   1.678  0.0072  0.0508  0.3322
25362SOL    HW177527   5.377   7.139   1.755  0.2874  1.6959 -0.8348
25362SOL    HW277528   5.374   7.141   1.604 -0.9599 -1.5554 -0.9403
25363SOL     OW77529   7.635   7.386  11.891 -0.0205  0.3186 -0.1126
25363SOL    HW177530   7.545   7.367  11.918  0.7021 -0.6775  1.8033
25363SOL    HW277531   7.679   7.301  11.890  0.9354  0.7938 -0.9407
25364SOL     OW77532   1.866   6.388  12.231 -0.1734 -0.3534  0.1906
25364SOL    HW177533   1.825   6.306  12.259 -0.2939 -0.5143 -0.4466
25364SOL    HW277534   1.958   6.366  12.219 -0.5004 -0.8620 -1.7035
25365SOL     OW77535   0.660   0.332   8.376 -0.8404 -0.5684  0.2811
25365SOL    HW177536   0.572   0.336   8.339 -0.4599 -0.0626 -0.5888
25365SOL    HW277537   0.696   0.250   8.342 -0.5962 -0.2467 -0.2534
25366SOL     OW77538   5.271   7.241   7.469  0.4703 -0.0326 -0.4152
25366SOL    HW177539   5.224   7.185   7.408 -0.1465 -0.5604  0.5266
25366SOL    HW277540   5.265   7.329   7.430  0.3111 -0.3965 -1.2291
25367SOL     OW77541   3.284   1.621   9.802 -0.2930 -0.2021 -0.2118
25367SOL    HW177542   3.369   1.576   9.807  0.0879  0.3264 -1.4081
25367SOL    HW277543   3.219   1.551   9.812  0.2932 -0.9325 -1.2650
25368SOL     OW77544   7.967   0.483   1.379 -0.0654 -0.6181 -0.3506
25368SOL    HW177545   8.003   0.494   1.291 -1.0105 -2.9857 -1.1127
25368SOL    HW277546   8.030   0.425   1.424 -0.3602 -0.6561  0.0224
25369SOL     OW77547   0.095   6.202   0.925  0.0568  0.1318  0.2781
25369SOL    HW177548   0.022   6.263   0.940 -1.5689 -1.2547 -1.5020
25369SOL    HW277549   0.057   6.115   0.936  1.0465 -0.6730 -2.1055
25370SOL     OW77550   2.259   3.000   2.100  0.3424 -0.0488  0.8179
25370SOL    HW177551   2.337   2.962   2.060  0.3550 -1.4762  2.0813
25370SOL    HW277552   2.290   3.081   2.140  0.6081  0.6879 -0.8360
25371SOL     OW77553   1.680   1.443  12.310  0.1501 -0.1207  0.0163
25371SOL    HW177554   1.607   1.505  12.320 -0.6875 -1.1089  0.1252
25371SOL    HW277555   1.758   1.497  12.324 -0.4604  1.3023 -1.6279
25372SOL     OW77556   7.197   7.074   4.944 -0.2547  0.2389 -0.1223
25372SOL    HW177557   7.155   7.071   4.858 -0.1449  0.7429 -0.1979
25372SOL    HW277558   7.125   7.093   5.005 -0.5660 -1.4418  0.0785
25373SOL     OW77559   3.503   7.797   5.640  0.0861 -0.2729 -0.1364
25373SOL    HW177560   3.574   7.795   5.704 -0.5341 -4.3910  0.6691
25373SOL    HW277561   3.522   7.724   5.581 -1.1925  1.2859 -2.6491
25374SOL     OW77562   2.592   5.730   1.034 -0.0496 -0.7128 -0.0369
25374SOL    HW177563   2.669   5.783   1.012  0.9381 -2.1605 -0.1417
25374SOL    HW277564   2.616   5.641   1.013 -1.6979 -1.2412  0.1396
25375SOL     OW77565   6.496   4.886  11.139 -0.1230  0.0331  0.1174
25375SOL    HW177566   6.408   4.900  11.105  0.5907  1.8464 -1.1446
25375SOL    HW277567   6.537   4.972  11.135  1.3824 -0.5435  1.7123
25376SOL     OW77568   3.035   1.205   8.074  0.9329 -0.2476  0.8392
25376SOL    HW177569   3.042   1.254   8.156  2.5579 -1.1167  1.2660
25376SOL    HW277570   3.030   1.272   8.006  1.3883  0.4978  1.5287
25377SOL     OW77571   3.320   2.203   7.074  0.1218 -0.0788  0.1785
25377SOL    HW177572   3.268   2.143   7.127  0.1403 -0.1348  0.1330
25377SOL    HW277573   3.398   2.219   7.126  0.0558  0.0114  0.2505
25378SOL     OW77574   5.482   4.996   7.608 -0.5766 -0.1676  0.0399
25378SOL    HW177575   5.461   4.942   7.532 -0.5629 -0.1279  0.0073
25378SOL    HW277576   5.571   4.971   7.632 -1.0271 -1.0815  0.8194
25379SOL     OW77577   1.397   6.382  11.071 -0.1814 -0.5440  0.2981
25379SOL    HW177578   1.468   6.320  11.055  0.5451  0.5325 -0.8013
25379SOL    HW277579   1.387   6.429  10.988 -0.6801  0.8421  1.1117
25380SOL     OW77580   1.402   4.295   5.434  0.6768 -0.1557 -0.0509
25380SOL    HW177581   1.397   4.278   5.340  0.6335  0.2821 -0.1294
25380SOL    HW277582   1.494   4.287   5.456  0.6867 -0.2572 -0.1308
25381SOL     OW77583   4.493   1.625   3.376 -0.5267  0.1367  0.2403
25381SOL    HW177584   4.445   1.634   3.293 -1.0694  1.4703  0.6742
25381SOL    HW277585   4.583   1.608   3.350  0.1201  4.1286 -0.8033
25382SOL     OW77586   1.755   2.641  10.913 -0.2135 -0.3171  0.1581
25382SOL    HW177587   1.743   2.611  11.003 -1.8993 -1.1742 -0.2957
25382SOL    HW277588   1.666   2.657  10.881  0.2946 -0.6521 -1.5383
25383SOL     OW77589   0.354   3.858   0.145  0.2294  0.1929 -0.1653
25383SOL    HW177590   0.348   3.865   0.240  0.4325 -0.4062 -0.1074
25383SOL    HW277591   0.269   3.888   0.113  0.0306  0.0382  0.2217
25384SOL     OW77592   6.365   1.324   1.008 -0.6287 -0.8301 -0.3871
25384SOL    HW177593   6.421   1.298   1.082 -1.8056 -0.6897  0.5696
25384SOL    HW277594   6.290   1.265   1.013 -0.3819 -1.3255 -1.9435
25385SOL     OW77595   0.444   6.753   3.470  0.2371  0.0854  0.4266
25385SOL    HW177596   0.536   6.778   3.478  0.9894 -2.0155 -0.9268
25385SOL    HW277597   0.405   6.825   3.420  1.6211  0.1137 -0.7159
25386SOL     OW77598   1.163   4.682   2.568  0.5747  0.4259  0.3388
25386SOL    HW177599   1.140   4.663   2.660 -0.5731  1.0769  0.2076
25386SOL    HW277600   1.246   4.637   2.555  0.1001 -0.8260  1.3117
25387SOL     OW77601   2.999   6.525   8.375  0.7020  0.1157  0.3690
25387SOL    HW177602   2.967   6.500   8.462  0.7065 -0.4189  0.2239
25387SOL    HW277603   3.082   6.570   8.392 -0.0891  1.4689  0.7439
25388SOL     OW77604   4.207   3.667  10.750 -0.1081 -0.3823  0.1785
25388SOL    HW177605   4.252   3.727  10.810  1.2665 -0.1743 -1.0120
25388SOL    HW277606   4.258   3.586  10.754 -2.8674 -2.2476  3.0479
25389SOL     OW77607   7.350   6.505   6.785 -0.2650  0.0405  0.0525
25389SOL    HW177608   7.364   6.410   6.788 -1.2139 -0.0974  0.4352
25389SOL    HW277609   7.316   6.526   6.872 -0.2028  0.7132 -0.0827
25390SOL     OW77610   4.628   4.299   8.115  0.1400  0.5947  0.2277
25390SOL    HW177611   4.590   4.274   8.030  1.2148 -1.5191  0.2959
25390SOL    HW277612   4.591   4.235   8.176 -2.1131  3.2183  1.8170
25391SOL     OW77613   5.324   4.262   7.121 -0.6231 -0.3906 -0.2434
25391SOL    HW177614   5.325   4.210   7.201 -1.2458  1.1251  0.7957
25391SOL    HW277615   5.396   4.227   7.069 -0.5987 -1.8231  0.6921
25392SOL     OW77616   4.669   5.017   6.912 -0.3246 -0.5473 -0.4510
25392SOL    HW177617   4.666   4.925   6.940  0.0063  0.2886  2.7258
25392SOL    HW277618   4.577   5.042   6.902 -0.4334 -1.1012 -0.8432
25393SOL     OW77619   0.711   0.266   9.933 -0.4614  0.5302 -0.0580
25393SOL    HW177620   0.766   0.227   9.866 -1.8692 -0.7572 -0.5103
25393SOL    HW277621   0.689   0.353   9.899 -1.4789 -0.2571 -1.4775
25394SOL     OW77622   1.093   0.564   5.112  0.1546  0.4431 -0.4855
25394SOL    HW177623   1.185   0.541   5.127  0.4614  0.6517 -1.8845
25394SOL    HW277624   1.045   0.484   5.130  0.5208  0.4880  0.8480
25395SOL     OW77625   6.510   6.246   6.709 -0.3224 -0.2633  0.0709
25395SOL    HW177626   6.561   6.268   6.631 -0.2688  1.9545  0.6472
25395SOL    HW277627   6.538   6.158   6.733  2.0507  0.2642 -0.5489
25396SOL     OW77628   1.946   0.865   6.055  0.1891 -0.1185  0.5971
25396SOL    HW177629   1.948   0.908   6.140  1.5596  0.0374  0.5140
25396SOL    HW277630   1.885   0.792   6.066  0.4643 -0.1904  1.7533
25397SOL     OW77631   1.673   1.768   0.918  0.0761  0.3323 -0.3748
25397SOL    HW177632   1.687   1.845   0.974  0.6427  0.4762 -0.6964
25397SOL    HW277633   1.579   1.752   0.922  0.2277 -0.2905  1.4203
25398SOL     OW77634   1.887   7.286   8.529 -0.4075  0.1684  0.0415
25398SOL    HW177635   1.885   7.231   8.451 -0.5303  0.6056 -0.2690
25398SOL    HW277636   1.977   7.282   8.561  0.0860  1.3712 -1.1242
25399SOL     OW77637   7.728   1.043   9.348  0.3966  0.7723 -0.2176
25399SOL    HW177638   7.707   1.045   9.254 -1.6924  2.1990  0.2076
25399SOL    HW277639   7.680   0.967   9.381 -1.9703  2.3631  0.2503
25400SOL     OW77640   3.374   4.010   8.941  0.3290 -0.4684  0.1502
25400SOL    HW177641   3.464   4.036   8.961 -0.7577  1.0260  4.0772
25400SOL    HW277642   3.331   4.090   8.912 -0.6949  0.0123  2.7198
25401SOL     OW77643   1.019   1.025  10.947 -0.1738 -0.8099 -0.5180
25401SOL    HW177644   1.096   0.993  10.994 -1.3759 -1.8660  0.8020
25401SOL    HW277645   1.012   1.117  10.971  0.3702 -0.8400 -0.2314
25402SOL     OW77646   7.242   2.612   5.620 -0.8000  0.1133  0.1914
25402SOL    HW177647   7.217   2.682   5.681 -2.0587 -1.7126  1.8700
25402SOL    HW277648   7.325   2.579   5.654  0.6870  1.7503 -1.5543
25403SOL     OW77649   7.457   2.285   1.268 -0.5916  0.0204 -0.1472
25403SOL    HW177650   7.402   2.267   1.191 -3.2763  1.1013  1.3760
25403SOL    HW277651   7.463   2.380   1.271 -1.1741  0.0314  1.3534
25404SOL     OW77652   2.633   2.397   8.476  0.4616  0.1940 -0.1765
25404SOL    HW177653   2.591   2.437   8.551 -1.3486 -0.2160 -0.9316
25404SOL    HW277654   2.613   2.455   8.402  0.0492 -0.7101 -0.7988
25405SOL     OW77655   0.885   4.217  12.031 -0.8116  0.0949 -0.1720
25405SOL    HW177656   0.912   4.158  12.102  0.4652  0.2437 -0.4935
25405SOL    HW277657   0.796   4.190  12.009 -0.2977 -1.6714 -0.2434
25406SOL     OW77658   3.159   7.134   7.254 -0.4636  0.0397 -0.3677
25406SOL    HW177659   3.187   7.222   7.281  0.3363 -0.1246 -0.6302
25406SOL    HW277660   3.149   7.140   7.159 -0.2419 -0.1956 -0.4070
25407SOL     OW77661   1.109   6.561   3.928 -0.1609 -0.1817 -0.4094
25407SOL    HW177662   1.131   6.513   4.008  0.4904 -0.0140 -0.4821
25407SOL    HW277663   1.168   6.637   3.928 -0.7337  0.2744 -0.6238
25408SOL     OW77664   6.634   2.669   6.736  0.2263  0.0438 -0.3554
25408SOL    HW177665   6.719   2.713   6.748  0.3178 -0.3266  0.4270
25408SOL    HW277666   6.593   2.673   6.822 -0.1594 -0.5952 -0.5079
25409SOL     OW77667   5.610   7.178   1.191  0.4017  0.6432 -0.0561
25409SOL    HW177668   5.581   7.251   1.245 -0.4768 -0.5763  1.2081
25409SOL    HW277669   5.530   7.148   1.147  0.1451 -1.1946  1.5277
25410SOL     OW77670   5.913   3.800   2.482 -0.0814  0.4256 -0.5763
25410SOL    HW177671   5.989   3.839   2.524  1.2766 -1.7698 -0.8496
25410SOL    HW277672   5.927   3.813   2.388 -0.0349 -0.0187 -0.6300
25411SOL     OW77673   0.437   6.785   9.636 -0.2697  0.2472 -0.2555
25411SOL    HW177674   0.384   6.838   9.576 -0.8278 -0.6516 -0.5683
25411SOL    HW277675   0.482   6.723   9.579 -1.6786 -1.3717  0.3155
25412SOL     OW77676   5.552   6.206   7.066  0.6443 -0.2148 -0.4127
25412SOL    HW177677   5.577   6.266   6.996  0.4036 -1.0826 -1.2736
25412SOL    HW277678   5.545   6.121   7.022 -0.6841 -0.5648  0.4370
25413SOL     OW77679   5.267   5.150   5.448 -0.1528  0.0136 -0.7580
25413SOL    HW177680   5.221   5.133   5.367 -0.0586 -1.4005 -0.5381
25413SOL    HW277681   5.359   5.161   5.422  0.3375 -3.0686 -0.6374
25414SOL     OW77682   6.167   7.656   2.366 -0.3357 -0.4278 -0.1440
25414SOL    HW177683   6.092   7.673   2.422  1.0869 -0.6350  1.9616
25414SOL    HW277684   6.166   7.727   2.302 -1.6788  0.2047  0.5451
25415SOL     OW77685   4.919   1.248  11.468 -0.4171 -0.3370  0.2362
25415SOL    HW177686   4.951   1.158  11.464 -1.5773 -1.0110  3.1818
25415SOL    HW277687   4.843   1.249  11.411 -0.6257 -1.3648  0.4748
25416SOL     OW77688   7.022   7.462  11.742  0.1725  0.2762 -0.0605
25416SOL    HW177689   7.018   7.408  11.663 -1.7837 -0.2484  0.3465
25416SOL    HW277690   7.033   7.399  11.814 -3.3941  0.1536  0.5478
25417SOL     OW77691   1.009   6.919   8.686  0.3181  0.6017 -0.2988
25417SOL    HW177692   0.972   6.935   8.600 -2.8078 -0.8287  0.6430
25417SOL    HW277693   0.969   6.985   8.743  1.5222  0.8735  0.2654
25418SOL     OW77694   2.227   7.156   3.035  0.1170 -0.2232 -0.3345
25418SOL    HW177695   2.310   7.108   3.037  0.3263  0.0887 -1.1124
25418SOL    HW277696   2.209   7.178   3.126  0.9684 -0.1704 -0.1780
25419SOL     OW77697   0.310   5.848  10.345 -0.1273 -0.0430  0.1546
25419SOL    HW177698   0.280   5.768  10.389  1.1005  0.1174  1.3498
25419SOL    HW277699   0.264   5.919  10.389  1.1175  0.1198  1.2261
25420SOL     OW77700   4.443   2.750   0.248 -0.1595 -0.2288  0.2785
25420SOL    HW177701   4.484   2.674   0.289 -0.0917 -0.2440  0.1821
25420SOL    HW277702   4.410   2.802   0.322 -0.5718 -0.5569  0.3237
25421SOL     OW77703   7.666   2.775   8.784 -0.2015 -0.1528 -0.3744
25421SOL    HW177704   7.606   2.787   8.858  1.8889  0.6719  1.2770
25421SOL    HW277705   7.689   2.864   8.757  1.4481 -0.4348  0.0314
25422SOL     OW77706   3.974   3.331   6.000 -0.2203  0.0534 -0.0897
25422SOL    HW177707   3.953   3.341   5.908  0.6286 -1.7873 -0.5277
25422SOL    HW277708   3.918   3.259   6.030  0.9895 -0.7717  0.2654
25423SOL     OW77709   2.511   7.953   4.625 -0.0666 -0.0539  0.2749
25423SOL    HW177710   2.500   8.037   4.581  0.4305  0.6169  1.3948
25423SOL    HW277711   2.592   7.963   4.676 -1.0118 -0.5202  1.9383
25424SOL     OW77712   3.215   7.511   7.659  0.1582  0.3508  0.2059
25424SOL    HW177713   3.289   7.454   7.637 -0.2930  0.3873 -1.5193
25424SOL    HW277714   3.255   7.583   7.709  1.4717  0.8864 -1.5288
25425SOL     OW77715   1.517   5.843   4.428 -0.2330  0.0359  0.0827
25425SOL    HW177716   1.470   5.767   4.461 -1.2447 -1.1306 -3.5925
25425SOL    HW277717   1.610   5.821   4.438 -0.4922 -0.3971  1.6566
25426SOL     OW77718   2.624   2.965   9.001 -0.0853  0.1747  0.8724
25426SOL    HW177719   2.533   2.992   9.004 -0.0323  0.3041  1.2674
25426SOL    HW277720   2.669   3.021   9.064  0.1638 -0.2975  1.1227
25427SOL     OW77721   1.430   3.582   6.593  0.0725  0.1922  0.3454
25427SOL    HW177722   1.384   3.514   6.543  0.3026 -0.0469  0.4545
25427SOL    HW277723   1.504   3.606   6.536  0.3538 -0.1041  0.5832
25428SOL     OW77724   6.118   0.617   1.017 -0.4566  0.3842 -0.5893
25428SOL    HW177725   6.054   0.672   0.971 -0.8491  0.6483  0.2554
25428SOL    HW277726   6.087   0.615   1.108  0.6703  0.4028 -0.1936
25429SOL     OW77727   4.263   1.533   4.516 -0.5623 -0.0708  0.8242
25429SOL    HW177728   4.199   1.494   4.457 -0.3160  0.0965  0.4444
25429SOL    HW277729   4.232   1.623   4.528 -1.3289 -0.4664  1.9827
25430SOL     OW77730   0.539   2.685   8.721  0.0736  0.1272  0.1597
25430SOL    HW177731   0.522   2.634   8.642  2.9352 -0.6137 -0.0947
25430SOL    HW277732   0.522   2.776   8.696 -0.0932 -0.2003 -0.9679
25431SOL     OW77733   2.546   6.023   2.737 -0.2053 -0.1197  0.2674
25431SOL    HW177734   2.619   5.985   2.688 -1.0439  0.7348 -1.7636
25431SOL    HW277735   2.585   6.095   2.787  0.2544  0.9527 -1.5398
25432SOL     OW77736   7.719   0.884   3.017  0.2065  0.2057  0.0636
25432SOL    HW177737   7.673   0.937   2.951 -0.3075 -0.5339 -0.1959
25432SOL    HW277738   7.801   0.859   2.974 -0.6946 -1.3745 -0.8543
25433SOL     OW77739   3.098   5.778   3.417  0.5857  0.0974 -0.3900
25433SOL    HW177740   3.028   5.797   3.480  1.5380  0.2543  0.6618
25433SOL    HW277741   3.135   5.863   3.396 -0.6484  0.2060 -2.3227
25434SOL     OW77742   7.426   0.810   3.515 -0.1896 -0.2106  0.0029
25434SOL    HW177743   7.388   0.840   3.432 -0.6002  0.1893  0.3284
25434SOL    HW277744   7.520   0.811   3.499 -0.2542  0.0628 -0.3968
25435SOL     OW77745   6.298   4.534   4.343 -0.1417  0.2583 -0.3114
25435SOL    HW177746   6.320   4.467   4.407  1.2761  1.5846  0.6563
25435SOL    HW277747   6.348   4.510   4.265 -0.9613 -0.7090 -0.5629
25436SOL     OW77748   2.285   2.802   3.655 -0.0100  0.3220 -0.0926
25436SOL    HW177749   2.218   2.870   3.656 -0.7627 -0.3361 -1.7395
25436SOL    HW277750   2.239   2.724   3.687  0.6680  0.4080  1.1458
25437SOL     OW77751   3.734   3.993   5.771  0.1485 -0.0040  0.4424
25437SOL    HW177752   3.781   4.052   5.712 -1.9076 -1.1924 -2.6360
25437SOL    HW277753   3.774   4.008   5.857  1.9047  3.3975 -0.7832
25438SOL     OW77754   5.254   7.665   9.339  0.1045  0.0000 -0.1276
25438SOL    HW177755   5.291   7.592   9.289  1.0832 -0.7832  1.6572
25438SOL    HW277756   5.329   7.722   9.358 -0.3138  0.4626  0.1715
25439SOL     OW77757   0.316   7.448  12.067  0.2495  0.2330 -0.2023
25439SOL    HW177758   0.292   7.452  12.160 -1.9770  0.1765 -0.7149
25439SOL    HW277759   0.239   7.410  12.024  1.1029  0.5594 -2.1200
25440SOL     OW77760   2.134   4.357  10.891 -0.3025  0.0154 -0.1795
25440SOL    HW177761   2.124   4.447  10.921 -0.5692  0.0975 -0.5149
25440SOL    HW277762   2.125   4.304  10.971  2.0969  0.3793  0.4146
25441SOL     OW77763   5.590   2.376   6.665  0.1124  0.2051 -0.6197
25441SOL    HW177764   5.562   2.433   6.593  1.9120  0.4761 -1.1562
25441SOL    HW277765   5.601   2.290   6.625 -0.9178 -0.1274 -0.1939
25442SOL     OW77766   7.631   4.773   0.146  0.8696 -0.3140 -0.0309
25442SOL    HW177767   7.655   4.710   0.078 -0.3255 -0.7181 -0.1093
25442SOL    HW277768   7.550   4.814   0.114  0.5594 -0.1615  0.9056
25443SOL     OW77769   1.474   3.506  11.908 -0.5610 -0.1966  0.1823
25443SOL    HW177770   1.385   3.472  11.902 -1.1600  0.7804  2.2621
25443SOL    HW277771   1.526   3.432  11.940 -0.8325 -0.5126 -0.1013
25444SOL     OW77772   7.133   3.410   7.968 -0.4191  0.0597 -0.4517
25444SOL    HW177773   7.154   3.317   7.958 -0.2656  0.1167 -0.6620
25444SOL    HW277774   7.068   3.428   7.899  0.1917  0.3093 -0.9782
25445SOL     OW77775   1.128   2.384   9.144  0.2593  0.2565  0.1817
25445SOL    HW177776   1.108   2.290   9.152  0.9570  0.1073  0.2065
25445SOL    HW277777   1.153   2.411   9.232  1.1864  0.1932 -0.0500
25446SOL     OW77778   0.062   1.372  11.168  0.3111 -0.4985  0.1646
25446SOL    HW177779   0.023   1.304  11.114 -0.2554  0.9834 -1.3824
25446SOL    HW277780   0.145   1.393  11.125  0.9381 -0.8461  1.1669
25447SOL     OW77781   0.080   6.770   6.017 -0.5629 -0.1798  0.1503
25447SOL    HW177782   0.163   6.815   6.035 -1.0696  0.6190  0.5163
25447SOL    HW277783   0.013   6.838   6.025 -1.2477 -0.7814 -0.3010
25448SOL     OW77784   2.071   1.189   4.173 -0.0624 -0.3110  0.1307
25448SOL    HW177785   2.123   1.162   4.249 -0.2677  1.3005  0.8883
25448SOL    HW277786   2.097   1.279   4.157  0.3045 -0.7657 -2.0333
25449SOL     OW77787   7.772   2.080  11.320 -0.1782  0.2645 -0.0298
25449SOL    HW177788   7.788   1.989  11.295  1.3405  0.8761 -1.4821
25449SOL    HW277789   7.767   2.078  11.415  0.2380 -1.2753 -0.0088
25450SOL     OW77790   1.084   3.374   8.586 -0.0268  0.1847  0.2422
25450SOL    HW177791   1.080   3.466   8.561 -2.1274  0.1372  0.2535
25450SOL    HW277792   1.149   3.336   8.528 -0.3919  1.3341 -0.9618
25451SOL     OW77793   0.205   7.018   1.552 -0.4566 -0.2565 -0.0807
25451SOL    HW177794   0.158   7.097   1.527 -0.3133 -0.2616 -0.3775
25451SOL    HW277795   0.297   7.039   1.536 -0.3497 -0.2208  0.5651
25452SOL     OW77796   2.724   4.577   5.602 -0.1758 -0.0197 -0.6241
25452SOL    HW177797   2.731   4.546   5.693  1.4070 -1.1789 -1.0852
25452SOL    HW277798   2.632   4.569   5.580 -0.1387 -2.7433 -0.0786
25453SOL     OW77799   2.973   7.168   1.208  0.1444 -0.1696 -0.3145
25453SOL    HW177800   2.890   7.134   1.175  0.4184  0.8221 -2.1474
25453SOL    HW277801   3.025   7.183   1.130  1.8584 -0.2140  0.7645
25454SOL     OW77802   0.794   5.461   2.635  0.1590  0.7946  0.0369
25454SOL    HW177803   0.723   5.446   2.697  0.7551 -0.4265  0.4604
25454SOL    HW277804   0.752   5.458   2.549 -0.2435 -0.3752  0.2619
25455SOL     OW77805   6.315   2.302   9.610  0.1207  0.5024  0.5329
25455SOL    HW177806   6.396   2.353   9.610  0.3378  0.2350 -1.4499
25455SOL    HW277807   6.304   2.275   9.519 -1.0116 -1.3716  1.1698
25456SOL     OW77808   7.404   6.077   5.823 -0.4084  0.1196  0.4305
25456SOL    HW177809   7.334   6.135   5.794 -0.1759 -0.0933 -0.6217
25456SOL    HW277810   7.397   6.075   5.918 -1.4778  0.5368  0.3675
25457SOL     OW77811   6.363   3.655   8.415  0.4690 -0.0581 -0.0299
25457SOL    HW177812   6.314   3.662   8.333  1.1732  0.9157 -0.3922
25457SOL    HW277813   6.444   3.609   8.391  0.7158  0.3042  0.0945
25458SOL     OW77814   5.449   3.510   3.229 -0.3220  0.1569  0.2315
25458SOL    HW177815   5.443   3.599   3.195  2.8179  0.3250 -0.1646
25458SOL    HW277816   5.447   3.454   3.151  0.9476  0.1513  0.1768
25459SOL     OW77817   3.812   0.280  12.313 -0.5140  0.6621  0.5964
25459SOL    HW177818   3.783   0.200  12.269  1.4629 -0.1765  0.7135
25459SOL    HW277819   3.802   0.348  12.247  0.1695 -0.1549 -0.3915
25460SOL     OW77820   1.826   5.132   6.624 -0.2868  0.7147 -0.0662
25460SOL    HW177821   1.754   5.079   6.659  0.2717 -0.2062 -0.2557
25460SOL    HW277822   1.900   5.113   6.682 -0.5046  2.6598  0.9174
25461SOL     OW77823   2.163   6.846  11.078  0.2683  0.0340 -0.0525
25461SOL    HW177824   2.206   6.763  11.100 -1.0768 -0.3156  1.4697
25461SOL    HW277825   2.069   6.826  11.083 -0.1281  1.9797  1.9717
25462SOL     OW77826   3.168   1.158  10.060  0.1622 -0.5910  0.0671
25462SOL    HW177827   3.210   1.244  10.056  2.1017 -1.3354  2.2427
25462SOL    HW277828   3.098   1.168  10.124 -1.1827 -0.1016 -1.4121
25463SOL     OW77829   0.872   6.074   3.161  0.2599 -0.2645 -0.1210
25463SOL    HW177830   0.821   6.096   3.239 -0.7996 -0.8802 -0.6275
25463SOL    HW277831   0.874   6.156   3.111  1.3320  0.2648  0.7336
25464SOL     OW77832   0.540   4.783  10.422 -0.0172  0.3137  0.3895
25464SOL    HW177833   0.541   4.878  10.419 -0.7548  0.3401  0.6991
25464SOL    HW277834   0.577   4.761  10.507 -0.0810  0.3360  0.4233
25465SOL     OW77835   1.667   2.905   7.356  0.1021 -0.8496 -0.1298
25465SOL    HW177836   1.605   2.978   7.357  0.3955 -0.5959  1.3439
25465SOL    HW277837   1.730   2.928   7.288 -0.6656 -0.4848 -0.7411
25466SOL     OW77838   7.482   7.917  10.563  0.1385 -1.0574 -0.5479
25466SOL    HW177839   7.487   8.000  10.516  0.3156 -0.6733  0.1452
25466SOL    HW277840   7.571   7.902  10.595  0.1906 -1.6979 -0.9743
25467SOL     OW77841   7.823   3.513   4.528  0.3662  0.5925 -0.1743
25467SOL    HW177842   7.847   3.522   4.621  1.4764 -0.9050 -0.2853
25467SOL    HW277843   7.904   3.532   4.481 -0.0501  0.7521 -0.8287
25468SOL     OW77844   5.913   5.340  10.114 -0.5488  0.1268  0.2202
25468SOL    HW177845   5.987   5.371  10.167 -0.6089 -0.9241  0.9325
25468SOL    HW277846   5.934   5.249  10.093 -1.2188  0.0927 -0.3518
25469SOL     OW77847   4.812   4.472   9.176 -0.2317  0.5904 -0.5577
25469SOL    HW177848   4.829   4.407   9.244  0.7990  0.5387 -0.8511
25469SOL    HW277849   4.804   4.555   9.223 -0.7848  0.3654 -0.2558
25470SOL     OW77850   4.782   3.403   8.658  0.1843 -0.0460 -0.3094
25470SOL    HW177851   4.806   3.467   8.591 -0.2746 -0.2873 -0.7058
25470SOL    HW277852   4.844   3.331   8.646  0.6122  0.2571  0.0473
25471SOL     OW77853   7.255   5.211   9.591 -0.5897  0.5133 -0.5292
25471SOL    HW177854   7.278   5.273   9.522 -0.6570  1.5255  0.3397
25471SOL    HW277855   7.165   5.231   9.613 -0.5513  0.2346 -0.1046
25472SOL     OW77856   1.244   7.042   9.213 -0.3951 -0.0803  0.2940
25472SOL    HW177857   1.265   6.979   9.281  0.6604 -0.4068 -0.3021
25472SOL    HW277858   1.182   7.102   9.253  0.8791  0.2559  1.8255
25473SOL     OW77859   6.523   3.841   1.969 -0.1260 -0.2882 -0.1846
25473SOL    HW177860   6.431   3.839   1.997  0.2613  1.2181  1.3776
25473SOL    HW277861   6.557   3.755   1.993 -1.1359 -0.8820 -0.8338
25474SOL     OW77862   7.507   3.548   8.562 -0.1675 -0.1637 -0.0055
25474SOL    HW177863   7.513   3.532   8.468  0.5781  0.2948 -0.0417
25474SOL    HW277864   7.526   3.642   8.572  0.8365 -0.4204  0.6915
25475SOL     OW77865   6.636   6.208   2.565 -0.0277 -0.2545 -0.1143
25475SOL    HW177866   6.703   6.145   2.541 -0.5351 -0.7294 -0.2909
25475SOL    HW277867   6.565   6.155   2.602 -0.1931  0.2649  0.3319
25476SOL     OW77868   0.735   5.143   6.245  0.0079  0.2982  0.1416
25476SOL    HW177869   0.700   5.122   6.331 -1.0525  0.0568 -0.3337
25476SOL    HW277870   0.809   5.083   6.234 -0.1231  0.0313  0.6944
25477SOL     OW77871   1.177   7.114   3.729  0.0146 -0.7630 -0.0001
25477SOL    HW177872   1.210   7.053   3.664  0.0573  0.2487 -0.9505
25477SOL    HW277873   1.095   7.075   3.759  0.1712 -1.4091 -0.3977
25478SOL     OW77874   7.883   7.366  12.320 -0.3131  0.1123  0.1989
25478SOL    HW177875   7.906   7.276  12.297  1.1687  0.6896 -0.7561
25478SOL    HW277876   7.814   7.390  12.258 -0.7911 -0.3909  0.5280
25479SOL     OW77877   5.303   1.341   4.346  0.6951  0.0714 -0.4808
25479SOL    HW177878   5.391   1.348   4.309  0.9451 -0.5078 -0.0095
25479SOL    HW277879   5.249   1.399   4.292  1.2063 -0.1730 -1.2660
25480SOL     OW77880   4.693   1.424   9.922  0.2604  0.1338  0.3422
25480SOL    HW177881   4.603   1.426   9.956 -0.3887 -0.1922 -1.2531
25480SOL    HW277882   4.684   1.393   9.832  2.0348 -0.3240  0.2846
25481SOL     OW77883   4.469   5.530  11.982  0.1805  0.1080  0.4469
25481SOL    HW177884   4.432   5.563  12.063 -0.2172  0.3766  0.1616
25481SOL    HW277885   4.433   5.442  11.972 -0.1193  0.2426  0.3394
25482SOL     OW77886   4.074   1.135   6.281 -0.2436 -0.1809  0.1181
25482SOL    HW177887   4.015   1.064   6.256  0.0717 -0.8523  1.1971
25482SOL    HW277888   4.148   1.127   6.222 -0.0903 -0.9339  0.4014
25483SOL     OW77889   4.132   5.229   7.813 -0.1166  0.2314 -0.0891
25483SOL    HW177890   4.112   5.138   7.832 -0.9455  0.3940 -0.1388
25483SOL    HW277891   4.227   5.234   7.816 -0.0606 -0.6559 -0.2020
25484SOL     OW77892   7.925   3.703   5.054  0.1483 -0.3296 -0.1483
25484SOL    HW177893   7.925   3.672   5.144 -1.5833  1.2604  0.4332
25484SOL    HW277894   7.840   3.745   5.042  0.3826 -0.3893 -2.4898
25485SOL     OW77895   4.591   3.692   6.543  0.5103  0.6497  0.3305
25485SOL    HW177896   4.549   3.694   6.629  0.0607 -1.4883  0.2119
25485SOL    HW277897   4.518   3.689   6.481  0.7694 -1.2241  0.0518
25486SOL     OW77898   7.397   3.842   1.299 -0.4626  0.6984 -0.6515
25486SOL    HW177899   7.424   3.827   1.209  0.0178  2.1283 -0.7814
25486SOL    HW277900   7.474   3.818   1.351 -0.1859  1.3289 -0.7542
25487SOL     OW77901   7.630   3.050   9.723  0.2743 -1.2888  0.1132
25487SOL    HW177902   7.722   3.036   9.704  1.0995  1.2622  1.6844
25487SOL    HW277903   7.608   2.983   9.787  1.3708 -1.2184  0.5802
25488SOL     OW77904   5.899   5.955   7.612  0.0477  0.5413 -0.1778
25488SOL    HW177905   5.975   5.904   7.585 -0.6747 -0.8493  0.3179
25488SOL    HW277906   5.844   5.962   7.534 -0.4402 -0.5682  0.0376
25489SOL     OW77907   4.226   3.871   2.975 -0.3182 -0.2314 -0.0879
25489SOL    HW177908   4.177   3.852   3.056 -0.9611  0.4235 -0.3151
25489SOL    HW277909   4.301   3.922   3.004 -0.1789 -0.5776  0.1736
25490SOL     OW77910   5.597   1.253   3.634  0.4780  0.4520 -0.6110
25490SOL    HW177911   5.507   1.229   3.616 -0.0733  0.5025  1.7459
25490SOL    HW277912   5.614   1.218   3.722  1.9661  2.4828 -0.0218
25491SOL     OW77913   4.618   1.378   4.326  0.3284  0.3126 -0.0676
25491SOL    HW177914   4.632   1.324   4.248  0.1211 -0.2310  0.2694
25491SOL    HW277915   4.705   1.406   4.352  0.3971  0.5164 -0.5102
25492SOL     OW77916   4.642   1.682   6.258 -0.1876 -0.0998 -0.0064
25492SOL    HW177917   4.732   1.697   6.288 -0.3999  0.7152  0.2398
25492SOL    HW277918   4.591   1.750   6.300 -0.8467 -0.2504 -0.5452
25493SOL     OW77919   4.838   7.479   4.646 -0.0326 -0.0697  0.2178
25493SOL    HW177920   4.791   7.469   4.729 -0.3695 -0.1478  0.0184
25493SOL    HW277921   4.827   7.571   4.623  0.2408  0.0031  0.3613
25494SOL     OW77922   7.469   6.432  11.097  0.1264  0.6028  0.0614
25494SOL    HW177923   7.415   6.353  11.103  1.4591 -0.4069 -0.8121
25494SOL    HW277924   7.427   6.483  11.028 -2.3548  2.0378  2.4155
25495SOL     OW77925   0.219   6.520   0.955 -0.4519 -0.3137  0.2313
25495SOL    HW177926   0.133   6.495   0.988 -1.0559  1.9688  0.5507
25495SOL    HW277927   0.214   6.615   0.943  1.0173 -0.4839 -2.7414
25496SOL     OW77928   3.316   5.436  11.960 -0.0741 -0.1397  0.0810
25496SOL    HW177929   3.411   5.423  11.966 -0.2813 -1.4607  0.9926
25496SOL    HW277930   3.282   5.350  11.934 -0.8433  0.9463 -2.8698
25497SOL     OW77931   6.248   0.334   4.095  0.7355  0.2380  0.0586
25497SOL    HW177932   6.159   0.311   4.068  1.5119 -1.3848 -1.3265
25497SOL    HW277933   6.286   0.378   4.019  0.9577  1.4487  0.8433
25498SOL     OW77934   2.586   0.502  11.551  0.3515 -0.0741  0.4361
25498SOL    HW177935   2.585   0.498  11.647 -0.1890  0.4077  0.4592
25498SOL    HW277936   2.507   0.455  11.525  1.2522 -1.4933  0.1533
25499SOL     OW77937   5.597   5.313  10.830  0.3648 -0.2671 -0.2330
25499SOL    HW177938   5.525   5.251  10.837  0.9526 -0.8132  1.4457
25499SOL    HW277939   5.670   5.270  10.875  0.3149  2.2732  2.6240
25500SOL     OW77940   7.262   7.203  11.168  0.3060 -0.6149 -0.7148
25500SOL    HW177941   7.233   7.260  11.097 -0.0176  0.3124  0.1412
25500SOL    HW277942   7.244   7.115  11.137 -1.4625 -0.1526 -1.0815
25501SOL     OW77943   3.163   1.981   9.488  0.5525 -0.0322  0.1609
25501SOL    HW177944   3.138   1.955   9.577  0.4396  0.4556  0.2775
25501SOL    HW277945   3.102   2.053   9.467 -0.2406 -0.9482 -0.7753
25502SOL     OW77946   3.027   0.462  11.617  0.0251  0.1728 -0.0571
25502SOL    HW177947   3.020   0.519  11.694 -2.4942 -0.2216  0.0978
25502SOL    HW277948   2.967   0.389  11.635 -2.9196  1.4150 -3.4051
25503SOL     OW77949   6.447   4.026  11.068  0.4152 -0.0412 -0.1681
25503SOL    HW177950   6.401   4.082  11.131  0.5146  0.7497 -0.7813
25503SOL    HW277951   6.479   4.087  11.001 -1.4061 -1.0611 -2.0711
25504SOL     OW77952   2.981   1.056   5.098 -0.4134  0.0613  0.2323
25504SOL    HW177953   3.058   1.113   5.087 -0.4522  0.2883  1.0186
25504SOL    HW277954   3.002   1.003   5.175 -1.9987  1.8116  1.9946
25505SOL     OW77955   7.729   1.633   0.683 -0.3872 -0.5496  0.3673
25505SOL    HW177956   7.769   1.717   0.659  0.1094  0.0083  2.8325
25505SOL    HW277957   7.786   1.599   0.752 -1.5129 -2.1175  0.5653
25506SOL     OW77958   6.502   5.171  10.529  0.0244 -0.3342 -0.6099
25506SOL    HW177959   6.498   5.255  10.484  2.4131  0.2188  0.0304
25506SOL    HW277960   6.579   5.128  10.491  1.1679 -0.5282  1.7395
25507SOL     OW77961   0.817   6.423   5.324 -0.2883 -0.1769  0.3748
25507SOL    HW177962   0.824   6.516   5.343 -0.0559 -0.1342  0.0911
25507SOL    HW277963   0.893   6.404   5.269 -1.2380 -0.1649 -0.9802
25508SOL     OW77964   0.537   1.966  12.062  0.7611 -0.2132 -1.0259
25508SOL    HW177965   0.606   1.922  12.012  0.6722  0.2844 -1.5991
25508SOL    HW277966   0.571   1.970  12.151  2.5152  2.0611 -1.7156
25509SOL     OW77967   3.662   0.992   4.159  0.6026  0.2782 -0.3327
25509SOL    HW177968   3.753   1.020   4.167  0.5879  0.7292 -1.5763
25509SOL    HW277969   3.668   0.902   4.126  0.6431 -1.2718  3.3521
25510SOL     OW77970   7.801   6.459   5.493  0.0559 -0.6257 -0.5760
25510SOL    HW177971   7.834   6.444   5.404 -1.5086 -1.8937 -0.9949
25510SOL    HW277972   7.707   6.475   5.481 -0.1073 -0.4211  0.8311
25511SOL     OW77973   4.477   4.479  10.771  0.0351 -0.0601 -0.3941
25511SOL    HW177974   4.480   4.562  10.723  2.6313 -0.3697 -0.9083
25511SOL    HW277975   4.478   4.504  10.863  0.5812  0.4782 -0.5443
25512SOL     OW77976   5.111   3.456   1.772 -0.0808  0.2359 -0.7496
25512SOL    HW177977   5.080   3.392   1.835 -0.2033 -0.8043 -1.8222
25512SOL    HW277978   5.038   3.469   1.712 -0.0817  1.4504 -0.5034
25513SOL     OW77979   0.989   6.913   7.557 -0.2361  0.1748  0.3557
25513SOL    HW177980   1.005   6.894   7.649 -2.6965  0.8408  0.9893
25513SOL    HW277981   0.933   6.841   7.527 -0.5551  0.6534 -0.2274
25514SOL     OW77982   3.858   2.740  11.755  0.2360 -0.0796 -0.1687
25514SOL    HW177983   3.863   2.786  11.839  1.4928 -0.8942  0.2485
25514SOL    HW277984   3.925   2.782  11.701 -2.0048  1.8996 -1.5953
25515SOL     OW77985   7.942   7.292   9.213 -0.4792  0.5270  0.3248
25515SOL    HW177986   7.883   7.301   9.139 -0.0997  0.3310 -0.0060
25515SOL    HW277987   7.885   7.291   9.290 -0.8576  0.9666  0.0510
25516SOL     OW77988   7.044   4.030   5.147  0.3579 -0.2396  0.0548
25516SOL    HW177989   7.059   4.073   5.063 -0.0831 -1.4035 -0.6426
25516SOL    HW277990   7.010   4.100   5.203  0.8055  0.5918 -0.6775
25517SOL     OW77991   1.013   4.535   2.302  0.4812 -0.5188 -0.2700
25517SOL    HW177992   1.021   4.470   2.232  0.2506 -1.9176  0.9675
25517SOL    HW277993   0.928   4.576   2.287  0.5919 -0.5322 -1.0066
25518SOL     OW77994   5.559   7.185  11.115 -0.5083 -0.2996  0.4954
25518SOL    HW177995   5.640   7.176  11.064 -0.9779 -0.8109 -0.1844
25518SOL    HW277996   5.490   7.188  11.049 -0.9355  2.0233  0.9600
25519SOL     OW77997   6.927   0.527   0.265 -0.1260 -0.2559 -0.6082
25519SOL    HW177998   6.835   0.554   0.262 -0.2283  0.3483  2.9758
25519SOL    HW277999   6.974   0.591   0.212 -1.7325 -0.6265 -2.5769
25520SOL     OW78000   4.289   3.105   0.336 -0.0882 -0.0140  0.4306
25520SOL    HW178001   4.274   3.114   0.430 -1.1192  3.8106  0.0897
25520SOL    HW278002   4.202   3.093   0.298  0.0582  0.6335 -0.1470
25521SOL     OW78003   1.617   4.502   0.316 -0.9922 -0.2836  0.6851
25521SOL    HW178004   1.710   4.481   0.312 -1.0678 -0.6491  0.8438
25521SOL    HW278005   1.575   4.442   0.255 -0.9175  1.1455 -0.8639
25522SOL     OW78006   7.523   1.112   2.523  0.4515 -0.6320  0.3355
25522SOL    HW178007   7.592   1.130   2.588  0.5959  0.7217 -0.1618
25522SOL    HW278008   7.551   1.030   2.482  0.7675 -1.1010  1.4316
25523SOL     OW78009   3.419   7.908   2.259 -0.3265  0.4138 -0.1861
25523SOL    HW178010   3.442   8.000   2.247  2.7911 -0.1257  0.9028
25523SOL    HW278011   3.389   7.903   2.350  1.3770  0.0939  0.3948
25524SOL     OW78012   4.494   3.926   2.403 -0.1184 -0.3423  0.0056
25524SOL    HW178013   4.404   3.892   2.401 -0.2428 -0.0606  0.5879
25524SOL    HW278014   4.525   3.916   2.313  0.2104 -2.9458  0.3168
25525SOL     OW78015   6.153   5.918  11.364 -0.0456 -0.6022 -0.3000
25525SOL    HW178016   6.091   5.877  11.304 -1.2131  0.1800  0.3231
25525SOL    HW278017   6.098   5.965  11.427  1.1816 -0.0218  0.3854
25526SOL     OW78018   0.889   1.315   8.697 -0.2131 -0.0319  0.0455
25526SOL    HW178019   0.953   1.272   8.640  0.3413  0.1028  0.5508
25526SOL    HW278020   0.942   1.356   8.765 -0.9011 -0.8684  1.1218
25527SOL     OW78021   6.085   7.474   3.795 -0.2235 -0.5240 -0.2906
25527SOL    HW178022   6.167   7.521   3.812 -0.5373 -0.7707  2.2853
25527SOL    HW278023   6.113   7.390   3.760  0.6939 -0.7790  0.9824
25528SOL     OW78024   2.058   4.454   8.724 -0.5869  0.4989  0.0904
25528SOL    HW178025   2.084   4.494   8.641 -0.7198 -0.0022 -0.1975
25528SOL    HW278026   2.129   4.394   8.745 -0.9446 -0.0024 -0.0995
25529SOL     OW78027   6.723   2.778   9.656 -0.1625  0.0563 -0.2206
25529SOL    HW178028   6.767   2.696   9.677  1.4018  0.6004 -1.2655
25529SOL    HW278029   6.671   2.758   9.578 -0.8603 -0.2743  0.3174
25530SOL     OW78030   3.443   7.045   0.932  0.1526 -0.2065 -0.3733
25530SOL    HW178031   3.437   6.966   0.985  1.3212 -0.9232 -1.2515
25530SOL    HW278032   3.537   7.060   0.923 -0.0360  0.4708 -1.3939
25531SOL     OW78033   3.089   0.101   6.631  0.3330 -0.3111  0.2515
25531SOL    HW178034   3.089   0.114   6.536 -0.3775 -1.0298  0.1411
25531SOL    HW278035   3.006   0.139   6.661  0.2171 -0.7406  0.4837
25532SOL     OW78036   0.484   1.760   6.547 -0.2152  0.0932 -0.5446
25532SOL    HW178037   0.554   1.700   6.521 -0.4176 -0.0631 -0.7375
25532SOL    HW278038   0.479   1.823   6.474  0.7789  1.0460  0.1837
25533SOL     OW78039   2.367   6.818   7.871  0.1627  0.0234 -0.1520
25533SOL    HW178040   2.285   6.779   7.840 -1.7338  2.4366  1.5009
25533SOL    HW278041   2.430   6.800   7.801 -1.7428 -1.9312 -1.4758
25534SOL     OW78042   4.546   1.360   7.285 -0.2928 -0.1453 -0.1219
25534SOL    HW178043   4.587   1.423   7.226  1.3846 -0.7638  0.3172
25534SOL    HW278044   4.615   1.340   7.349 -1.8860  0.1409  1.7645
25535SOL     OW78045   3.951   2.853   5.278 -0.4339  0.1473 -0.5055
25535SOL    HW178046   4.031   2.889   5.240 -1.2140  1.8319 -0.6507
25535SOL    HW278047   3.980   2.777   5.328  1.4440  1.4504  0.5040
25536SOL     OW78048   1.565   1.129   1.115 -0.0383 -0.1586 -0.0355
25536SOL    HW178049   1.584   1.038   1.138 -0.9323 -0.3409  0.0266
25536SOL    HW278050   1.503   1.123   1.042  0.3993  0.4067 -0.4651
25537SOL     OW78051   0.158   4.068   7.647  0.1682 -0.0827 -0.1587
25537SOL    HW178052   0.236   4.123   7.657  0.4160 -0.6705  1.3873
25537SOL    HW278053   0.111   4.078   7.729 -0.4746 -1.1228 -0.3916
25538SOL     OW78054   3.569   1.426   4.050  0.1429 -0.0334 -0.0559
25538SOL    HW178055   3.511   1.404   3.978  0.8983 -1.2601 -0.3114
25538SOL    HW278056   3.583   1.521   4.041 -0.7546  0.0448 -0.7600
25539SOL     OW78057   3.977   3.614   5.261  0.3847 -0.9932 -0.1795
25539SOL    HW178058   4.048   3.678   5.268  1.1631 -1.8946  0.4273
25539SOL    HW278059   3.952   3.595   5.352 -0.5916 -0.7457 -0.3834
25540SOL     OW78060   0.357   5.535   6.156  0.0017 -0.6141 -0.1180
25540SOL    HW178061   0.274   5.508   6.194 -0.1073  0.1691  0.2196
25540SOL    HW278062   0.406   5.454   6.144  0.5352 -0.8465  2.8178
25541SOL     OW78063   3.650   7.950   5.453 -0.0838 -0.1151  0.2260
25541SOL    HW178064   3.728   7.895   5.456 -0.9894 -1.4374  0.1595
25541SOL    HW278065   3.621   7.956   5.544  1.0088  1.7759  0.4954
25542SOL     OW78066   2.348   5.837  10.456 -0.2597  0.0813  0.6020
25542SOL    HW178067   2.431   5.846  10.503 -0.6690  0.3285  1.2856
25542SOL    HW278068   2.312   5.753  10.486 -1.0230  0.7330  1.5413
25543SOL     OW78069   5.977   2.865   8.193  0.2178 -0.2158 -0.2720
25543SOL    HW178070   5.983   2.883   8.287  0.3122 -0.1603 -0.2883
25543SOL    HW278071   5.990   2.771   8.186  1.3662 -0.0712 -0.3251
25544SOL     OW78072   0.990   3.277   2.514 -0.2112  1.1307  0.2512
25544SOL    HW178073   0.967   3.191   2.549 -0.6616  0.6471 -1.1706
25544SOL    HW278074   1.009   3.330   2.592 -0.2193 -0.1579  1.1664
25545SOL     OW78075   4.408   6.194   6.551 -0.2131  0.2393 -0.1014
25545SOL    HW178076   4.455   6.118   6.518 -0.1380  0.5186 -0.6644
25545SOL    HW278077   4.474   6.264   6.551  0.3691 -0.2109  2.6291
25546SOL     OW78078   5.665   0.757   0.870 -0.1737  0.2508 -0.2224
25546SOL    HW178079   5.631   0.761   0.960  0.1451 -1.5644  0.0046
25546SOL    HW278080   5.604   0.701   0.823  0.7132 -0.3887 -0.6357
25547SOL     OW78081   0.791   5.436   0.216  0.0066 -0.2426 -0.3954
25547SOL    HW178082   0.879   5.471   0.230 -0.4828  0.6259  0.5646
25547SOL    HW278083   0.799   5.384   0.136  1.3365  0.0096 -0.4483
25548SOL     OW78084   4.876   3.304   9.413  0.0860 -0.6306 -0.4063
25548SOL    HW178085   4.783   3.290   9.432 -0.3401  0.0165 -1.9043
25548SOL    HW278086   4.895   3.389   9.453 -0.9404  0.9698 -3.0942
25549SOL     OW78087   1.662   6.919   7.152 -0.1948 -0.0283  0.1170
25549SOL    HW178088   1.657   6.910   7.247 -0.1763  1.7611  0.3073
25549SOL    HW278089   1.731   6.858   7.126 -0.2051 -0.5458  1.2312
25550SOL     OW78090   2.900   2.727   2.377 -0.7018 -0.3397  0.5213
25550SOL    HW178091   2.870   2.810   2.341  1.9629 -0.1333 -1.4813
25550SOL    HW278092   2.960   2.752   2.447  1.7360 -0.3894 -1.4283
25551SOL     OW78093   3.360   2.634   9.481  0.5561 -0.3143  0.1013
25551SOL    HW178094   3.297   2.637   9.552 -0.3339 -1.3953 -0.6002
25551SOL    HW278095   3.351   2.718   9.436  0.3329 -0.0699  0.6061
25552SOL     OW78096   5.428   7.645   1.510 -0.3857  0.0576 -0.5420
25552SOL    HW178097   5.514   7.644   1.468  0.2459  1.3356  0.6239
25552SOL    HW278098   5.369   7.679   1.442  0.3311  0.6515 -0.8888
25553SOL     OW78099   4.882   4.998   5.631 -0.2484 -0.1881 -0.1437
25553SOL    HW178100   4.789   4.993   5.611 -0.1986 -0.1493 -0.3961
25553SOL    HW278101   4.919   5.048   5.558 -0.1344  0.3938  0.2987
25554SOL     OW78102   6.498   6.952  10.094  0.0124  0.5341 -0.2740
25554SOL    HW178103   6.508   6.859  10.075 -0.5282  0.4293 -0.0611
25554SOL    HW278104   6.585   6.989  10.081  0.7809 -0.3822  1.7972
25555SOL     OW78105   3.271   0.268   4.363 -0.2350  0.1031 -0.0208
25555SOL    HW178106   3.276   0.229   4.276 -0.0467  0.7850 -0.3232
25555SOL    HW278107   3.333   0.218   4.416  1.8683  1.5490 -1.0222
25556SOL     OW78108   6.055   0.452  10.031 -0.1477  0.0244  0.7805
25556SOL    HW178109   6.010   0.518   9.977 -1.3887 -0.5253  1.0926
25556SOL    HW278110   6.038   0.479  10.121  0.5780  0.0711  0.9089
25557SOL     OW78111   6.223   1.937   0.200 -0.3514 -0.3649 -0.5004
25557SOL    HW178112   6.242   1.844   0.190  0.9424 -0.1107 -0.6168
25557SOL    HW278113   6.129   1.942   0.214 -0.6614 -1.5850 -1.9662
25558SOL     OW78114   2.968   0.514   8.054 -0.2947 -0.4906 -0.7310
25558SOL    HW178115   2.889   0.542   8.008 -0.2786  0.9071  0.0495
25558SOL    HW278116   2.982   0.581   8.120  1.4978 -0.7721 -0.7826
25559SOL     OW78117   2.449   6.497   2.339  0.0080 -0.6526  0.0210
25559SOL    HW178118   2.372   6.546   2.368 -1.2348 -2.7329  0.5078
25559SOL    HW278119   2.443   6.498   2.244 -0.6683 -0.8117  0.0531
25560SOL     OW78120   7.181   1.205  11.238  0.0340 -0.2577 -0.1358
25560SOL    HW178121   7.136   1.255  11.170  0.7120  1.1296  0.3909
25560SOL    HW278122   7.110   1.163  11.287 -0.5409 -0.1122 -0.8337
25561SOL     OW78123   7.533   4.413   5.521  0.4236  0.5651 -0.0761
25561SOL    HW178124   7.594   4.371   5.461  0.6979 -0.5215  0.9352
25561SOL    HW278125   7.520   4.501   5.484  1.0436  0.1364 -1.3772
25562SOL     OW78126   3.903   5.171   1.879  0.1347  0.6061  0.4717
25562SOL    HW178127   3.972   5.107   1.860  0.4180  1.1202 -0.2776
25562SOL    HW278128   3.852   5.175   1.798  1.4033  2.9106 -0.2880
25563SOL     OW78129   1.900   7.363   7.295  0.4662 -0.0136 -0.1000
25563SOL    HW178130   1.821   7.418   7.290  1.6673  1.7273 -1.2654
25563SOL    HW278131   1.935   7.379   7.382 -0.9762 -1.6166  0.8255
25564SOL     OW78132   7.878   2.268  11.541 -0.5820  0.6726 -0.0174
25564SOL    HW178133   7.878   2.358  11.575 -0.4201 -0.0907  2.1195
25564SOL    HW278134   7.797   2.230  11.574  1.3066 -1.2241  2.8428
25565SOL     OW78135   1.604   1.016   0.719 -0.0326  0.5331  0.4595
25565SOL    HW178136   1.598   0.923   0.741  0.6430  0.4676  0.3933
25565SOL    HW278137   1.514   1.048   0.723 -0.3981 -0.3376 -0.4300
25566SOL     OW78138   1.914   2.400   8.417 -1.2469 -0.0017 -0.0396
25566SOL    HW178139   1.892   2.313   8.385  0.7344 -1.4727  2.2829
25566SOL    HW278140   1.915   2.392   8.512  2.3760  1.5455  0.2309
25567SOL     OW78141   6.505   7.365   4.299  0.3074  0.3581  0.3040
25567SOL    HW178142   6.447   7.394   4.370 -0.4531 -0.3324 -0.0129
25567SOL    HW278143   6.446   7.322   4.237  1.1343 -0.1371 -0.1523
25568SOL     OW78144   7.680   5.793  11.086  0.1790  0.3436  0.3522
25568SOL    HW178145   7.739   5.785  11.160  1.9279  1.3888 -0.8515
25568SOL    HW278146   7.720   5.861  11.031  0.1270 -1.8471 -2.6004
25569SOL     OW78147   0.053   5.599   6.080  0.0408  0.4874  0.2270
25569SOL    HW178148   0.005   5.589   6.162  1.0964  1.3456  0.9785
25569SOL    HW278149   0.007   5.670   6.034 -1.3734 -0.8852 -0.5829
25570SOL     OW78150   5.496   4.146  10.402 -0.5684 -0.1437 -0.0515
25570SOL    HW178151   5.452   4.061  10.399 -0.0350 -0.5526  2.0984
25570SOL    HW278152   5.442   4.198  10.462  0.0932  0.4443  0.0415
25571SOL     OW78153   2.501   6.312   7.035 -0.3798 -0.1053 -0.0504
25571SOL    HW178154   2.511   6.278   7.124  0.6781  0.0862 -0.0885
25571SOL    HW278155   2.407   6.305   7.018 -0.5246 -0.6501  0.8773
25572SOL     OW78156   0.989   4.651   0.699  0.5521  0.5251 -0.0100
25572SOL    HW178157   0.932   4.725   0.719  0.0557  0.4765 -1.1718
25572SOL    HW278158   0.933   4.574   0.703  1.3255  0.0040  2.4493
25573SOL     OW78159   2.622   1.375   6.253 -0.4590  0.4305 -0.4059
25573SOL    HW178160   2.614   1.307   6.319 -0.2195 -0.8319 -1.6352
25573SOL    HW278161   2.556   1.353   6.187 -2.9255  3.4089  0.7872
25574SOL     OW78162   2.432   5.084   0.228  0.1902  0.1797  0.4971
25574SOL    HW178163   2.400   4.995   0.241 -0.3298  0.5660  2.0157
25574SOL    HW278164   2.417   5.128   0.312 -0.1174  1.8696 -0.3885
25575SOL     OW78165   3.116   0.521   3.767  0.2810  0.5711 -0.4033
25575SOL    HW178166   3.197   0.487   3.806  0.0635 -0.4463 -0.8138
25575SOL    HW278167   3.144   0.561   3.685  0.1493 -1.5859 -1.5629
25576SOL     OW78168   7.746   6.053   6.139 -0.5893 -0.2212 -0.0912
25576SOL    HW178169   7.674   6.068   6.200 -0.5400  0.7737 -0.2649
25576SOL    HW278170   7.804   5.991   6.184 -0.2313  0.9828  1.1443
25577SOL     OW78171   1.541   4.320   7.322  0.0691  0.7433  0.1945
25577SOL    HW178172   1.585   4.402   7.342  1.8550 -0.1999  0.2601
25577SOL    HW278173   1.547   4.312   7.226  1.6943 -0.2477  0.3495
25578SOL     OW78174   0.742   3.939   6.843 -0.2299  0.3344  0.3450
25578SOL    HW178175   0.675   3.916   6.779 -2.2038  3.7453  0.9235
25578SOL    HW278176   0.796   4.004   6.798  1.2239 -0.5964  0.7025
25579SOL     OW78177   1.501   3.165   8.979  0.2873  0.0959  0.1353
25579SOL    HW178178   1.426   3.211   9.015  0.3413  0.1656  0.1580
25579SOL    HW278179   1.543   3.125   9.056 -0.1737 -0.6027  0.0381
25580SOL     OW78180   2.414   0.884   7.583 -0.1373 -0.6236 -0.3750
25580SOL    HW178181   2.423   0.917   7.493 -2.0194  0.9225 -0.0676
25580SOL    HW278182   2.350   0.814   7.577 -0.5211 -0.2903 -0.1983
25581SOL     OW78183   2.211   2.197   0.065  0.1267  0.1791 -0.2915
25581SOL    HW178184   2.293   2.151   0.082 -1.4956 -3.0792 -0.5626
25581SOL    HW278185   2.189   2.176  -0.025 -2.0366 -0.9307  0.4153
25582SOL     OW78186   1.255   0.905   5.732  0.4670 -0.0923  0.7128
25582SOL    HW178187   1.166   0.930   5.708  0.3321  1.1254  2.3380
25582SOL    HW278188   1.244   0.836   5.798  0.6942  0.2552  1.1270
25583SOL     OW78189   0.646   0.637   0.339 -0.1698  0.3283 -0.0755
25583SOL    HW178190   0.638   0.626   0.434 -3.0023  1.0722 -0.1199
25583SOL    HW278191   0.555   0.641   0.308  0.6699  0.8948 -2.7323
25584SOL     OW78192   5.614   2.199  11.105  0.0300 -0.0725 -0.1538
25584SOL    HW178193   5.611   2.210  11.010 -0.3147  0.5976 -0.0753
25584SOL    HW278194   5.624   2.289  11.139 -1.2523 -0.1448  0.4884
25585SOL     OW78195   0.130   6.658   6.566 -0.1526 -0.1207  0.2555
25585SOL    HW178196   0.084   6.625   6.643  0.3755 -0.5725  0.3793
25585SOL    HW278197   0.132   6.583   6.506 -1.0115  0.3714 -0.4144
25586SOL     OW78198   4.275   6.850   1.995 -0.5249  0.4850 -0.3668
25586SOL    HW178199   4.211   6.861   1.926 -0.7827  2.0526  0.0799
25586SOL    HW278200   4.312   6.938   2.008  0.7390 -0.1115  0.3120
25587SOL     OW78201   7.718   1.826   6.534 -0.1707  0.5014  0.1074
25587SOL    HW178202   7.805   1.863   6.552 -0.3176  0.1424  1.6209
25587SOL    HW278203   7.675   1.891   6.479  1.3026  0.3630 -1.3052
25588SOL     OW78204   1.116   1.530   1.982 -0.5926  0.5609 -0.7793
25588SOL    HW178205   1.041   1.500   1.931 -1.1872  2.2395 -0.9687
25588SOL    HW278206   1.175   1.455   1.986 -2.2482 -0.7773 -0.6711
25589SOL     OW78207   0.892   1.015   2.076 -0.4194 -0.3019  0.0181
25589SOL    HW178208   0.897   0.923   2.099  1.9837 -0.8768 -2.2283
25589SOL    HW278209   0.806   1.025   2.035 -0.0097 -2.0689 -1.4048
25590SOL     OW78210   6.516   2.630   3.757  0.2528 -0.5416  0.2088
25590SOL    HW178211   6.549   2.560   3.700 -0.7930 -0.5550 -0.4208
25590SOL    HW278212   6.590   2.688   3.771  0.6578 -0.8167 -0.7569
25591SOL     OW78213   6.928   6.101   4.138  0.1938 -0.0513 -0.1075
25591SOL    HW178214   6.955   6.009   4.149 -1.1564 -0.5792 -0.9437
25591SOL    HW278215   6.963   6.145   4.215  0.4552 -1.3670  0.5666
25592SOL     OW78216   3.195   6.944  11.876  0.4980  0.5715  0.6224
25592SOL    HW178217   3.271   6.914  11.826  0.0888 -0.3129  0.5122
25592SOL    HW278218   3.232   6.996  11.947  1.2349 -0.1512  0.7846
25593SOL     OW78219   6.296   3.213  10.478 -0.2603  0.3149  0.1414
25593SOL    HW178220   6.263   3.125  10.495  0.0547 -0.0454 -1.0218
25593SOL    HW278221   6.222   3.260  10.439 -0.4028  0.5400  0.6812
25594SOL     OW78222   5.411   1.167   4.714  0.4100 -0.0759  0.9942
25594SOL    HW178223   5.443   1.229   4.780  2.2813 -0.7815  0.8338
25594SOL    HW278224   5.470   1.180   4.639 -0.2837 -0.8179  0.3066
25595SOL     OW78225   2.030   1.465   7.354  0.0360 -0.0219  0.0881
25595SOL    HW178226   2.108   1.464   7.411  2.1788 -0.8025 -2.6390
25595SOL    HW278227   2.045   1.540   7.296 -2.0057  0.6474  0.3342
25596SOL     OW78228   4.221   4.769   9.481 -0.5521  0.0200  0.1193
25596SOL    HW178229   4.126   4.767   9.466 -0.5572 -0.6031  0.2377
25596SOL    HW278230   4.231   4.801   9.571 -0.6464  0.0345  0.1248
25597SOL     OW78231   7.134   0.147   9.224  0.3668 -0.5434  0.0508
25597SOL    HW178232   7.055   0.170   9.176 -0.7040 -2.5360  0.7299
25597SOL    HW278233   7.172   0.231   9.251 -3.0384  0.5362  2.0990
25598SOL     OW78234   2.072   5.904   2.406  0.0817  0.2876 -0.1516
25598SOL    HW178235   2.154   5.890   2.359  0.2355  0.7309 -0.0182
25598SOL    HW278236   2.091   5.877   2.496 -0.2335 -0.6293 -0.3442
25599SOL     OW78237   0.993   5.331  11.597  0.4249 -0.1210  0.2571
25599SOL    HW178238   0.970   5.354  11.507 -0.2522  1.0981  0.7121
25599SOL    HW278239   0.909   5.312  11.639  0.6802 -0.1141  0.7825
25600SOL     OW78240   1.125   0.566   2.363  0.7422 -0.4095  0.7187
25600SOL    HW178241   1.148   0.608   2.446 -0.5074  0.1052  0.8288
25600SOL    HW278242   1.036   0.596   2.345  0.2222 -2.1572  0.2246
25601SOL     OW78243   5.802   7.890  10.299  0.3333  0.1607  0.5462
25601SOL    HW178244   5.860   7.965  10.286 -0.8152  0.8850 -0.6804
25601SOL    HW278245   5.736   7.898  10.230  0.5576 -2.3657 -0.0839
25602SOL     OW78246   7.171   7.954   2.510 -0.1872 -0.2090 -0.0431
25602SOL    HW178247   7.170   7.969   2.415 -0.8776  1.1791  0.1525
25602SOL    HW278248   7.090   7.995   2.541 -0.5144 -1.5916  1.0237
25603SOL     OW78249   2.379   2.181  12.171  0.7415  0.0805  0.0564
25603SOL    HW178250   2.450   2.177  12.236  0.1515  0.2880  0.7260
25603SOL    HW278251   2.423   2.204  12.089  1.3053  1.3844  0.7029
25604SOL     OW78252   4.104   2.841  10.191 -0.5609 -1.0957 -0.6723
25604SOL    HW178253   4.101   2.809  10.101 -0.2860 -0.1165 -1.0464
25604SOL    HW278254   4.166   2.914  10.188 -0.7362 -0.8951  0.2623
25605SOL     OW78255   5.901   5.360   3.868 -0.2284  0.1944 -0.1096
25605SOL    HW178256   5.859   5.320   3.791  0.4305  0.4913 -0.6276
25605SOL    HW278257   5.982   5.310   3.880  0.1083  0.7271 -0.1499
25606SOL     OW78258   5.673   5.009   5.570 -0.3066 -0.1140 -0.4052
25606SOL    HW178259   5.616   5.052   5.634 -1.0145 -1.1885 -0.2862
25606SOL    HW278260   5.697   5.078   5.509 -1.0731  0.5387  0.0125
25607SOL     OW78261   4.109   7.002   4.735  0.2519  0.3109 -0.3109
25607SOL    HW178262   4.200   7.033   4.734  1.1864 -2.2513 -1.0616
25607SOL    HW278263   4.100   6.950   4.655 -1.9190  0.5515 -0.2715
25608SOL     OW78264   1.455   4.005  11.093  0.0637 -0.5657 -0.1978
25608SOL    HW178265   1.549   4.005  11.111  0.5721  2.4132 -2.0502
25608SOL    HW278266   1.446   3.949  11.015  0.4396 -0.3338 -0.4138
25609SOL     OW78267   4.923   7.901   3.991  0.0880  0.1386  0.9329
25609SOL    HW178268   4.974   7.907   3.910 -0.0207  1.1011  0.9222
25609SOL    HW278269   4.837   7.936   3.968 -0.0993 -0.0525  1.3355
25610SOL     OW78270   4.445   0.568   3.884 -0.2620 -0.3070  0.3208
25610SOL    HW178271   4.509   0.630   3.849 -1.2438  0.7676  0.3819
25610SOL    HW278272   4.463   0.486   3.836  0.7999  0.1100 -0.0319
25611SOL     OW78273   5.162   1.265   3.923  0.3063 -0.5023 -0.2795
25611SOL    HW178274   5.104   1.224   3.860 -1.6222  0.1507  1.0035
25611SOL    HW278275   5.117   1.258   4.007  2.3428 -0.4725  0.8908
25612SOL     OW78276   0.789   4.502  11.413 -0.0041  0.0040 -0.6026
25612SOL    HW178277   0.762   4.410  11.420 -2.8764  0.8654  1.8557
25612SOL    HW278278   0.715   4.546  11.371  0.2120  1.5651  0.5730
25613SOL     OW78279   4.854   3.761   7.752  0.2710  0.4680 -0.2209
25613SOL    HW178280   4.894   3.698   7.692 -0.8520 -1.2018  0.7016
25613SOL    HW278281   4.776   3.717   7.785 -0.2427  2.1303  0.9346
25614SOL     OW78282   4.772   3.084   7.034 -0.0204  0.2099  0.4253
25614SOL    HW178283   4.678   3.097   7.027 -0.7031 -2.9883  1.9031
25614SOL    HW278284   4.797   3.041   6.953  0.0976  0.6060  0.2475
25615SOL     OW78285   7.703   4.672   7.790 -0.0300  0.0242 -0.2326
25615SOL    HW178286   7.719   4.718   7.708  1.6950 -1.3019 -0.7037
25615SOL    HW278287   7.621   4.626   7.776 -0.2226  0.5401 -0.8641
25616SOL     OW78288   4.433   6.105   0.615  0.0464  0.1215 -0.0680
25616SOL    HW178289   4.468   6.159   0.685  0.1023  0.8046 -0.6082
25616SOL    HW278290   4.360   6.155   0.579  1.4287  0.9007 -2.0013
25617SOL     OW78291   4.035   1.455   6.752 -0.4343  0.6951  0.0888
25617SOL    HW178292   4.045   1.382   6.691 -0.3925 -0.4227  1.3863
25617SOL    HW278293   4.106   1.515   6.729  1.4960 -1.1340  0.9437
25618SOL     OW78294   4.066   2.100   9.559  0.6121  0.1143 -0.6882
25618SOL    HW178295   4.048   2.020   9.510 -0.4938 -1.5084  2.0983
25618SOL    HW278296   4.155   2.087   9.592  0.2475 -0.2722  0.1887
25619SOL     OW78297   0.272   2.633   6.165 -0.3314  0.0019 -0.2293
25619SOL    HW178298   0.245   2.553   6.210 -0.3975 -0.0790 -0.4110
25619SOL    HW278299   0.190   2.670   6.132 -0.3247  0.2511  0.0244
25620SOL     OW78300   6.531   6.447  10.285  0.4389  0.0716 -0.1674
25620SOL    HW178301   6.551   6.454  10.192 -0.4829 -1.8442 -0.5561
25620SOL    HW278302   6.587   6.376  10.316 -1.7077 -1.6646 -0.0684
25621SOL     OW78303   7.347   7.309   7.015  0.5089 -0.0515 -0.4094
25621SOL    HW178304   7.254   7.289   7.018  0.3822  0.1814 -1.8608
25621SOL    HW278305   7.385   7.262   7.089 -0.8287  0.2967  0.5190
25622SOL     OW78306   0.134   1.707  10.867 -0.4639  0.1629 -0.3485
25622SOL    HW178307   0.170   1.794  10.849 -1.2908  0.7133  0.5492
25622SOL    HW278308   0.055   1.702  10.812  0.7749 -0.9452 -2.1286
25623SOL     OW78309   3.303   0.773   1.197 -0.5410 -0.7161 -0.0661
25623SOL    HW178310   3.297   0.814   1.111  2.0429  0.4945  0.2086
25623SOL    HW278311   3.285   0.681   1.182  1.5772 -0.8574 -2.2913
25624SOL     OW78312   1.888   1.034   6.810  0.2041  0.2318 -0.0725
25624SOL    HW178313   1.980   1.053   6.790  0.1353  0.0829 -0.5426
25624SOL    HW278314   1.840   1.108   6.772  0.0620 -0.1081 -0.5618
25625SOL     OW78315   7.407   4.361   9.708  0.3834 -0.4192 -0.4568
25625SOL    HW178316   7.497   4.367   9.677  0.4726 -0.1016 -0.1445
25625SOL    HW278317   7.411   4.308   9.788  0.7047  1.7497  1.0649
25626SOL     OW78318   3.844   6.741   4.019 -0.8192  0.0899 -0.1903
25626SOL    HW178319   3.797   6.667   4.057 -1.6051 -0.0972 -1.4735
25626SOL    HW278320   3.893   6.704   3.945  3.2503 -0.1879  2.3638
25627SOL     OW78321   0.307   7.292   8.499 -0.6544  0.0134 -0.4277
25627SOL    HW178322   0.330   7.215   8.447 -1.0907  0.0438 -0.6757
25627SOL    HW278323   0.390   7.322   8.537 -0.6764 -1.3774  0.7909
25628SOL     OW78324   1.468   0.530   1.684 -0.0566 -0.0928 -0.1076
25628SOL    HW178325   1.454   0.480   1.765  0.0430 -0.8033 -0.5230
25628SOL    HW278326   1.563   0.545   1.681 -0.2136  1.2699  0.6741
25629SOL     OW78327   4.279   5.213   2.338  0.1456  0.3046 -0.1108
25629SOL    HW178328   4.306   5.230   2.247  2.5808 -1.4823  0.1998
25629SOL    HW278329   4.217   5.141   2.331 -1.8597  1.9861 -0.5201
25630SOL     OW78330   5.906   5.094  12.035  0.1548 -0.1329  0.3867
25630SOL    HW178331   5.824   5.049  12.016  1.4882 -2.6882  0.0992
25630SOL    HW278332   5.883   5.162  12.097 -2.2614 -0.3184 -0.2260
25631SOL     OW78333   7.907   5.369   8.608  0.3316 -0.3858 -0.8756
25631SOL    HW178334   7.968   5.427   8.653 -0.4214 -0.0124 -0.3099
25631SOL    HW278335   7.856   5.427   8.551  1.0310 -0.8060 -1.9540
25632SOL     OW78336   1.082   0.019   4.552  0.5144 -0.0034  0.5210
25632SOL    HW178337   1.135   0.050   4.625  1.8831 -0.9104 -0.0582
25632SOL    HW278338   1.131  -0.054   4.515 -1.0630 -0.7688 -0.1540
25633SOL     OW78339   1.938   6.548   2.449  0.0232  0.3118  0.3883
25633SOL    HW178340   1.857   6.532   2.400  0.3175  1.4705 -0.5301
25633SOL    HW278341   1.978   6.624   2.405  1.4691 -0.0630  0.9945
25634SOL     OW78342   2.342   2.948   8.001 -0.1996 -0.0924 -0.0232
25634SOL    HW178343   2.365   3.040   7.983 -0.9332  0.3804  1.2794
25634SOL    HW278344   2.375   2.900   7.925  0.4931  1.2036 -0.5895
25635SOL     OW78345   6.097   1.397   6.958 -0.5177 -0.4097  0.0699
25635SOL    HW178346   6.055   1.355   6.884  0.6541 -0.1680 -0.7561
25635SOL    HW278347   6.188   1.369   6.954 -0.1449  0.6432  0.6531
25636SOL     OW78348   3.777   0.395   2.202 -0.2499 -0.6194 -0.0668
25636SOL    HW178349   3.777   0.491   2.203  0.8656 -0.5946 -0.3923
25636SOL    HW278350   3.819   0.370   2.284 -0.3713 -0.8219 -0.0654
25637SOL     OW78351   3.796   2.651  11.505  0.1531  0.0624  0.1794
25637SOL    HW178352   3.881   2.681  11.473  0.5687 -1.1693  0.0611
25637SOL    HW278353   3.805   2.652  11.601  0.7348 -1.1777  0.1588
25638SOL     OW78354   0.105   2.952   6.369 -0.0852 -0.3973  0.1528
25638SOL    HW178355   0.056   2.880   6.407  0.7011 -0.1178  1.8239
25638SOL    HW278356   0.143   2.998   6.445 -0.1157  1.4426 -0.8796
25639SOL     OW78357   2.160   7.024   5.020 -0.3994 -0.5412  0.0663
25639SOL    HW178358   2.157   7.009   5.114  0.1800  1.0617  0.3688
25639SOL    HW278359   2.092   6.967   4.984  0.0151 -1.8918  1.3305
25640SOL     OW78360   2.274   4.128   7.809  0.0211  0.7637  0.0455
25640SOL    HW178361   2.231   4.080   7.880  0.9690  1.3119  1.0311
25640SOL    HW278362   2.362   4.090   7.803 -0.6719 -0.6557 -2.2518
25641SOL     OW78363   7.191   6.346  10.360  0.0980 -0.6461  0.4333
25641SOL    HW178364   7.122   6.400  10.320  1.0186  0.5990  0.4610
25641SOL    HW278365   7.181   6.261  10.319  0.1477  0.2220 -1.4991
25642SOL     OW78366   3.564   1.950   4.624 -0.3006  0.7509  0.1218
25642SOL    HW178367   3.540   1.955   4.716  0.0892  0.1256  0.2632
25642SOL    HW278368   3.622   1.874   4.618 -2.5404 -0.9864 -1.1204
25643SOL     OW78369   0.131   4.448   8.862  0.4716 -0.9230  0.5175
25643SOL    HW178370   0.139   4.395   8.941  2.1364  0.3898  1.2742
25643SOL    HW278371   0.062   4.512   8.883 -1.4788 -2.5992 -0.3661
25644SOL     OW78372   4.549   4.266  10.378  0.5462 -0.1277  0.5146
25644SOL    HW178373   4.630   4.264  10.327 -0.1684 -0.8143 -0.6534
25644SOL    HW278374   4.482   4.234  10.318 -0.4657 -0.3195  1.6889
25645SOL     OW78375   6.810   2.873   7.521  0.1421 -0.0803 -0.4304
25645SOL    HW178376   6.894   2.827   7.530  1.0982  1.0270 -2.9245
25645SOL    HW278377   6.818   2.948   7.580  2.3530  1.8146 -2.8755
25646SOL     OW78378   5.113   1.079   7.760 -0.2610 -0.5069 -0.0561
25646SOL    HW178379   5.151   1.120   7.682 -0.1486 -2.1732 -0.9311
25646SOL    HW278380   5.125   0.985   7.745 -1.4541 -0.9130  1.3629
25647SOL     OW78381   5.728   7.396   6.844 -0.3645  0.4810  0.3606
25647SOL    HW178382   5.678   7.419   6.923  1.6812 -2.7358  2.8651
25647SOL    HW278383   5.687   7.315   6.812  0.9958 -0.2541  0.3774
25648SOL     OW78384   3.109   5.747   4.939  0.0745 -0.7292 -0.0586
25648SOL    HW178385   3.169   5.818   4.915  1.4529 -1.6856  0.4147
25648SOL    HW278386   3.135   5.674   4.882 -1.9345 -0.6322 -1.2022
25649SOL     OW78387   0.447   1.046   0.294 -0.1836 -0.0511 -0.0815
25649SOL    HW178388   0.399   0.973   0.333  0.2000 -0.6097 -0.6330
25649SOL    HW278389   0.517   1.005   0.243  0.3490  0.7189 -0.0029
25650SOL     OW78390   5.311   3.847   3.978 -0.0691  0.0235 -0.5962
25650SOL    HW178391   5.281   3.813   3.893 -2.5726 -1.1615  0.6552
25650SOL    HW278392   5.352   3.931   3.957  1.9581 -1.4797 -3.2758
25651SOL     OW78393   4.369   4.641  11.431 -0.5672  0.9559  0.4257
25651SOL    HW178394   4.363   4.736  11.440  0.7669  0.9224  2.2567
25651SOL    HW278395   4.426   4.627  11.356  1.0405  1.6895  1.4517
25652SOL     OW78396   3.219   1.735   5.917  0.2676 -0.3578  0.4848
25652SOL    HW178397   3.126   1.717   5.900  0.2183 -0.4444  0.8373
25652SOL    HW278398   3.241   1.678   5.990  0.8741 -1.1009 -0.2564
25653SOL     OW78399   7.945   1.811   5.307  0.1225 -0.0785  0.0565
25653SOL    HW178400   8.023   1.852   5.344 -0.8354  1.0299  0.9315
25653SOL    HW278401   7.902   1.769   5.381 -1.3826  1.4562  0.1456
25654SOL     OW78402   0.282   2.755   4.206  0.1910 -0.0018 -0.0659
25654SOL    HW178403   0.226   2.746   4.129 -0.2530 -1.0315  0.3684
25654SOL    HW278404   0.303   2.849   4.209  0.4323  0.0215 -1.5744
25655SOL     OW78405   7.183   1.666   7.486 -0.1637 -0.4036  0.3070
25655SOL    HW178406   7.140   1.748   7.464 -2.2033 -0.3833  3.6802
25655SOL    HW278407   7.133   1.599   7.441 -1.5465 -0.0964  1.3348
25656SOL     OW78408   4.939   2.577   0.840 -0.8202 -0.4119  0.0051
25656SOL    HW178409   4.950   2.672   0.846 -2.1503 -0.2101 -0.4510
25656SOL    HW278410   4.848   2.565   0.813 -0.6949 -1.8253  0.1387
25657SOL     OW78411   6.201   5.339  10.736 -0.0842 -0.0584  0.0973
25657SOL    HW178412   6.221   5.319  10.828 -0.2410  0.3587  0.2267
25657SOL    HW278413   6.284   5.324  10.690  0.9737  2.7777  0.8030
25658SOL     OW78414   4.100   2.823   0.337  0.2196 -0.3653 -0.9555
25658SOL    HW178415   4.068   2.853   0.422  0.0088 -1.3113 -0.6934
25658SOL    HW278416   4.193   2.846   0.339  0.2887 -0.6605 -0.3355
25659SOL     OW78417   2.825   0.276   1.042 -0.1300 -0.1403  0.3572
25659SOL    HW178418   2.754   0.318   1.091  0.1181  0.4113  0.2479
25659SOL    HW278419   2.891   0.256   1.108 -0.2157 -0.2924  0.3976
25660SOL     OW78420   4.391   1.716   3.089  0.3214  0.4325 -0.5297
25660SOL    HW178421   4.301   1.747   3.093  0.5548  0.9945  0.8411
25660SOL    HW278422   4.415   1.721   2.996 -0.8098  0.9712 -0.7960
25661SOL     OW78423   6.108   4.402   2.697  0.6685 -0.0161 -0.1563
25661SOL    HW178424   6.191   4.447   2.684  0.6248  0.3567  0.7292
25661SOL    HW278425   6.127   4.336   2.764  0.5138 -0.7177 -0.7868
25662SOL     OW78426   4.240   4.669   4.098 -0.0924  0.1760  0.0283
25662SOL    HW178427   4.185   4.647   4.023 -0.4761  0.0497  0.3461
25662SOL    HW278428   4.235   4.765   4.105  1.1779  0.3523 -1.0447
25663SOL     OW78429   1.015   1.504   8.264  0.0212  0.3383 -0.2615
25663SOL    HW178430   1.030   1.410   8.264 -0.9594  0.1703  0.5357
25663SOL    HW278431   0.991   1.525   8.354  1.4684  1.5691 -0.1368
25664SOL     OW78432   6.101   2.197   7.054  0.4903 -0.6416 -0.2228
25664SOL    HW178433   6.058   2.214   6.970  0.9868  0.9915 -0.1678
25664SOL    HW278434   6.030   2.196   7.117  0.3786  0.9785 -0.2840
25665SOL     OW78435   5.705   5.841   5.638 -0.1661  0.0939 -0.3438
25665SOL    HW178436   5.645   5.785   5.590 -1.6762  1.7252 -0.4517
25665SOL    HW278437   5.784   5.842   5.584  0.0279 -2.0680 -0.2082
25666SOL     OW78438   1.788   1.988   4.688  0.3607  0.1636 -0.0134
25666SOL    HW178439   1.812   1.940   4.608 -0.7482  2.0544 -1.5684
25666SOL    HW278440   1.868   2.031   4.716  0.0927  2.3842 -2.2661
25667SOL     OW78441   1.797   2.559   5.025 -0.2815  0.2422 -0.1713
25667SOL    HW178442   1.854   2.492   4.989 -2.1727 -0.8248 -1.3773
25667SOL    HW278443   1.827   2.570   5.115 -0.2053 -2.6761  0.2776
25668SOL     OW78444   6.935   0.942   7.674 -0.1743  1.2717 -0.2981
25668SOL    HW178445   6.871   0.960   7.743  0.6500 -1.5783  1.4184
25668SOL    HW278446   6.917   0.851   7.649  0.2193  1.9048 -3.2088
25669SOL     OW78447   7.496   4.312  11.829  0.1678 -0.0460  0.4025
25669SOL    HW178448   7.538   4.345  11.750 -1.0309 -0.4432 -0.4231
25669SOL    HW278449   7.559   4.250  11.866  0.6915  0.0672 -0.2908
25670SOL     OW78450   1.090   7.963   9.759 -0.0503 -0.3587 -0.5095
25670SOL    HW178451   1.080   7.912   9.839 -0.5538 -1.2751 -1.1388
25670SOL    HW278452   1.170   8.014   9.773 -0.1461 -0.4773  0.5810
25671SOL     OW78453   5.606   3.778   5.996 -0.7235  0.6811  0.3556
25671SOL    HW178454   5.517   3.742   6.005  0.0879 -1.4469  0.5355
25671SOL    HW278455   5.607   3.815   5.907 -1.5779  0.0840  0.0775
25672SOL     OW78456   2.506   7.064   7.868  1.1180  0.3851  0.4003
25672SOL    HW178457   2.450   7.003   7.917  2.0085 -0.4138  0.4371
25672SOL    HW278458   2.522   7.020   7.785  0.4366  1.3014 -0.2326
25673SOL     OW78459   6.348   4.437   9.769  0.0568  0.0927  0.4526
25673SOL    HW178460   6.361   4.346   9.744 -0.7124  0.2446 -0.5335
25673SOL    HW278461   6.349   4.435   9.865  0.2519 -0.9141  0.4445
25674SOL     OW78462   0.880   6.040   4.434 -0.5697  0.5627  0.1299
25674SOL    HW178463   0.846   5.958   4.468  0.0752  0.4408  0.4922
25674SOL    HW278464   0.876   6.101   4.508 -0.5542  0.7159  0.0068
25675SOL     OW78465   6.910   4.004  12.157  0.2006  0.1479  0.0661
25675SOL    HW178466   6.977   4.054  12.202  0.0825 -0.2719  0.7200
25675SOL    HW278467   6.958   3.947  12.098  0.3314  1.1181 -0.7996
25676SOL     OW78468   5.228   6.786   4.443 -0.1151 -0.0461  0.0840
25676SOL    HW178469   5.181   6.866   4.466  1.3410  1.5301 -2.1121
25676SOL    HW278470   5.294   6.776   4.511  0.2490  1.1328 -0.0831
25677SOL     OW78471   3.901   0.108   0.609  0.1054  0.8278  0.4923
25677SOL    HW178472   3.824   0.052   0.596  0.3170  0.7222 -0.3835
25677SOL    HW278473   3.872   0.195   0.579  0.2385  0.8569  0.4493
25678SOL     OW78474   5.428   5.682   8.904  0.1766  0.5243 -0.4107
25678SOL    HW178475   5.362   5.744   8.937  0.9758  2.6872 -2.5351
25678SOL    HW278476   5.491   5.738   8.858  0.9796 -1.9168 -2.4519
25679SOL     OW78477   7.662   5.634   9.287  0.2559  0.2857  0.0242
25679SOL    HW178478   7.682   5.560   9.231 -0.3409  0.8070 -0.9040
25679SOL    HW278479   7.739   5.690   9.282  0.3677  0.1327  0.0519
25680SOL     OW78480   6.534   4.082  10.797 -0.1548 -0.0680 -0.0918
25680SOL    HW178481   6.607   4.041  10.750  1.2483  0.3293  1.6353
25680SOL    HW278482   6.570   4.167  10.826 -1.9583  1.0191 -0.8771
25681SOL     OW78483   5.623   5.365   4.848 -0.1776  0.2580 -0.0173
25681SOL    HW178484   5.668   5.419   4.783 -0.8567 -2.6405 -3.1558
25681SOL    HW278485   5.532   5.395   4.845  0.1085  1.3353  1.0585
25682SOL     OW78486   5.244   5.945  11.283  0.2268 -0.0487 -0.2518
25682SOL    HW178487   5.180   6.015  11.289  0.9835  0.5158  1.9065
25682SOL    HW278488   5.324   5.987  11.251  0.0047 -0.4646 -1.4378
25683SOL     OW78489   1.517   3.014  11.685  0.7031  0.6479 -0.4609
25683SOL    HW178490   1.442   3.049  11.637 -0.2828  2.1843  1.9812
25683SOL    HW278491   1.593   3.050  11.640 -0.1268  1.2755 -1.4154
25684SOL     OW78492   0.059   4.493  11.964 -0.4209  0.0057 -0.3557
25684SOL    HW178493   0.023   4.526  12.046 -0.6275  0.0381 -0.4575
25684SOL    HW278494  -0.018   4.460  11.917 -0.2856 -0.1279 -0.4802
25685SOL     OW78495   3.135   4.850   4.997 -0.3095  0.3353  1.3396
25685SOL    HW178496   3.103   4.940   4.985  2.3093  1.1277 -0.6178
25685SOL    HW278497   3.093   4.800   4.927  0.0038  0.5767  0.9743
25686SOL     OW78498   5.561   2.058  10.192 -0.1441  0.0698 -0.1409
25686SOL    HW178499   5.614   2.053  10.112  0.5199  0.6053  0.2521
25686SOL    HW278500   5.621   2.091  10.259 -0.3006 -1.7014  0.9348
25687SOL     OW78501   7.078   7.658   1.673  0.3305 -0.3976 -0.3725
25687SOL    HW178502   7.101   7.627   1.761  0.3642 -0.4636 -0.4041
25687SOL    HW278503   7.008   7.599   1.644  0.7906 -0.8145 -0.6627
25688SOL     OW78504   4.598   1.721   5.990 -0.5241  0.4449  0.0609
25688SOL    HW178505   4.624   1.813   5.990  1.8258 -0.1238 -1.8416
25688SOL    HW278506   4.618   1.690   6.078  2.1658  0.9401 -0.3012
25689SOL     OW78507   4.769   5.843   6.972 -0.4892 -0.1103 -0.3369
25689SOL    HW178508   4.731   5.802   6.893  0.0317 -1.3397  0.0270
25689SOL    HW278509   4.862   5.819   6.969  0.2515  2.5002 -0.9884
25690SOL     OW78510   6.370   1.665   7.885  0.2942  0.2509  0.5662
25690SOL    HW178511   6.418   1.686   7.965 -0.2585  0.4929  0.8427
25690SOL    HW278512   6.317   1.588   7.909 -0.4790  0.8096  0.6863
25691SOL     OW78513   1.256   6.555   6.993 -0.2214  0.3330  0.1492
25691SOL    HW178514   1.309   6.481   7.023  0.1040  0.9166  1.0768
25691SOL    HW278515   1.268   6.622   7.061 -3.0541  0.0772  1.0459
25692SOL     OW78516   5.506   0.632   7.089  0.6279  0.1630  0.5808
25692SOL    HW178517   5.448   0.574   7.138  0.8437 -0.1427  0.4737
25692SOL    HW278518   5.458   0.715   7.083 -0.5016 -0.5713 -0.9449
25693SOL     OW78519   4.834   4.462   5.536 -0.0033 -0.2025  0.1805
25693SOL    HW178520   4.836   4.369   5.513 -0.7234 -0.1708 -0.0397
25693SOL    HW278521   4.752   4.494   5.498 -0.5400  0.1621  1.5916
25694SOL     OW78522   4.277   6.239   6.318 -0.7114  0.0965  0.4151
25694SOL    HW178523   4.232   6.157   6.301 -0.8344  0.0320  1.0092
25694SOL    HW278524   4.337   6.218   6.390  1.7057 -0.3305 -1.6034
25695SOL     OW78525   3.116   0.832   0.563 -0.3783 -0.5328 -0.3927
25695SOL    HW178526   3.182   0.860   0.500  1.2368 -1.3265  0.8992
25695SOL    HW278527   3.075   0.914   0.593 -2.0472 -0.1739 -3.2639
25696SOL     OW78528   4.015   1.693   8.358 -0.0652  0.1004  0.3044
25696SOL    HW178529   3.957   1.726   8.290 -0.0243  0.2714  0.3538
25696SOL    HW278530   4.055   1.615   8.319 -1.2595 -0.7477  0.7106
25697SOL     OW78531   0.938   6.914   9.576 -0.1290 -0.0653 -0.2122
25697SOL    HW178532   0.943   6.916   9.671 -0.3910 -0.5846 -0.1869
25697SOL    HW278533   0.883   6.839   9.555  0.6532 -0.5002 -0.7954
25698SOL     OW78534   7.466   3.450   2.608 -0.1258 -0.5262 -0.2946
25698SOL    HW178535   7.500   3.515   2.547  0.7874 -1.3487 -0.6926
25698SOL    HW278536   7.447   3.500   2.688 -0.1169  0.3408 -0.8216
25699SOL     OW78537   2.088   0.136   4.678 -0.1953 -0.1831  0.0425
25699SOL    HW178538   2.124   0.075   4.742  0.5362  0.1481 -0.0508
25699SOL    HW278539   2.058   0.211   4.731 -2.3994 -1.1674  0.3301
25700SOL     OW78540   0.865   5.529   3.005 -0.1776 -0.2781  0.3241
25700SOL    HW178541   0.951   5.534   2.962  0.4010 -1.9562  1.1820
25700SOL    HW278542   0.867   5.597   3.071 -0.0512  0.5939 -0.5533
25701SOL     OW78543   3.574   1.604   1.447  0.3116 -0.3723 -0.2090
25701SOL    HW178544   3.642   1.655   1.403  1.3019 -1.5138 -0.0618
25701SOL    HW278545   3.605   1.597   1.538 -0.4345 -0.1839  0.0605
25702SOL     OW78546   5.794   7.192  10.515 -0.0377  0.3318  0.3114
25702SOL    HW178547   5.773   7.233  10.598  2.7326  0.3811  1.0873
25702SOL    HW278548   5.852   7.253  10.471  0.6863 -0.8492 -0.4542
25703SOL     OW78549   5.791   5.459  10.715 -0.1956 -0.9083  0.3193
25703SOL    HW178550   5.847   5.409  10.775 -0.8361 -0.6676  1.1347
25703SOL    HW278551   5.706   5.416  10.722  0.1094 -1.9294 -1.6987
25704SOL     OW78552   5.181   3.438   9.979 -0.6831 -0.0025 -0.2482
25704SOL    HW178553   5.172   3.390   9.897  2.3960  0.7069 -1.1347
25704SOL    HW278554   5.137   3.521   9.963 -0.5654 -0.0787 -1.0022
25705SOL     OW78555   1.332   2.119   0.307  1.0196 -0.5026  0.0008
25705SOL    HW178556   1.353   2.138   0.215  1.2904 -0.8609 -0.0171
25705SOL    HW278557   1.329   2.205   0.349 -1.0727 -0.1718 -0.7302
25706SOL     OW78558   1.471   6.958   9.548  0.1576 -0.4484 -0.1572
25706SOL    HW178559   1.391   7.010   9.544  1.5347  1.7596 -0.4613
25706SOL    HW278560   1.507   6.974   9.635  0.4707 -1.1395 -0.1482
25707SOL     OW78561   5.067   2.501   7.008 -0.0066 -0.2320 -0.5571
25707SOL    HW178562   5.127   2.511   7.081  0.4511 -1.0997 -0.7972
25707SOL    HW278563   4.998   2.565   7.024 -0.5005 -1.1584  1.2058
25708SOL     OW78564   5.442   2.015   4.057 -0.3867 -0.5990 -0.3025
25708SOL    HW178565   5.351   2.000   4.082 -0.2856  0.6631  0.9542
25708SOL    HW278566   5.445   2.106   4.028  0.2644 -0.9588 -1.4182
25709SOL     OW78567   2.023   1.186   9.103 -0.1501  0.3540 -0.4976
25709SOL    HW178568   2.095   1.134   9.136 -0.4295  0.5136  0.3852
25709SOL    HW278569   1.987   1.230   9.180 -0.8554  0.6874 -0.9995
25710SOL     OW78570   7.187   7.209   9.186  0.1394 -0.6675  0.2509
25710SOL    HW178571   7.144   7.292   9.209 -0.3673 -0.7997 -0.1911
25710SOL    HW278572   7.225   7.226   9.100 -0.2040 -0.9758  0.0355
25711SOL     OW78573   7.883   7.134   5.043  0.5511 -0.0212  0.1597
25711SOL    HW178574   7.958   7.127   4.983 -2.1032 -2.4572 -3.2222
25711SOL    HW278575   7.833   7.209   5.011  1.4106  1.6877  2.4959
25712SOL     OW78576   6.625   7.781   5.744 -0.1840  0.3009  0.0744
25712SOL    HW178577   6.564   7.797   5.816 -0.0662  0.2420  0.1855
25712SOL    HW278578   6.684   7.856   5.746  0.1163  0.0565  0.3387
25713SOL     OW78579   6.026   1.985   2.294 -0.2640 -0.3330 -0.2601
25713SOL    HW178580   5.950   2.032   2.260 -0.6847 -0.5098  0.4101
25713SOL    HW278581   6.006   1.971   2.386  1.0099  0.4445  0.1600
25714SOL     OW78582   1.865   1.402  11.924 -0.1507 -0.2023 -0.0979
25714SOL    HW178583   1.915   1.365  11.851 -0.2646 -0.1575 -0.1981
25714SOL    HW278584   1.906   1.365  12.002  2.0534  2.1995  0.0133
25715NA      NA78585   4.444   2.305   1.066  0.0655  0.2557  0.5523
25716NA      NA78586   3.696   4.486  12.372 -0.2609 -0.1042  0.3242
25717NA      NA78587   7.425   3.801   0.920 -0.0918 -0.3405 -0.0866
25718NA      NA78588   0.829   3.027   8.420 -0.1148 -0.0102 -0.3041
25719NA      NA78589   3.137   1.216   9.339 -0.5082 -0.1014 -0.2330
25720NA      NA78590   3.872   4.116   8.341  0.5992  0.0866 -0.4012
25721NA      NA78591   3.024   5.002   8.675  0.3217 -0.1081  0.0324
25722NA      NA78592   5.349   5.206   8.250  0.3081  0.0583 -0.2290
25723NA      NA78593   6.292   7.917   5.115  0.0327  0.0751 -0.2762
25724NA      NA78594   2.443   6.489   2.891 -0.0749  0.1254  0.0391
25725NA      NA78595   7.470   2.654   4.049  0.0404  0.7287  0.5808
25726NA      NA78596   1.592   6.573   0.130 -0.2547  0.1714 -0.4423
25727NA      NA78597   3.052   1.820   7.484  0.1536  0.9101 -0.0701
25728NA      NA78598   7.537   7.517   7.491 -0.1058 -0.6704 -0.1637
25729NA      NA78599   6.681   2.504   2.843 -0.2116  0.3245 -0.0836
25730NA      NA78600   1.470   6.148   1.846  0.1300  0.3481  0.1423
25731NA      NA78601   4.049   3.903  12.005 -0.6814 -0.2943 -0.0852
25732NA      NA78602   7.545   3.354  11.565  0.0924 -0.0349  1.0007
25733NA      NA78603   6.318   4.371   9.245 -0.6348 -0.2326 -0.2121
25734NA      NA78604   3.562   4.174   5.443  0.0054 -0.0241 -0.0449
25735NA      NA78605   4.073   0.029   3.314  0.1397  0.2546  0.0709
25736NA      NA78606   7.850   5.393   3.117 -0.3669 -0.0769  0.1194
25737NA      NA78607   4.502   6.000   8.267  0.4336  0.0610 -0.6586
25738NA      NA78608   5.444   1.494   9.933 -0.0758 -0.1258 -0.1742
25739NA      NA78609   0.606   4.454   2.782  0.2278 -0.4358  0.4023
25740NA      NA78610   3.115   3.085  11.011  0.1381  0.5216 -0.0589
25741NA      NA78611   1.522   7.638   5.226 -0.0996  0.1407 -0.2453
25742NA      NA78612   4.126   1.586  10.940 -0.1919 -0.0488 -0.5311
25743NA      NA78613   3.647   4.493  10.790  0.4194  0.1105  0.1700
25744NA      NA78614   7.189   6.253   0.140 -0.0634  0.1021  0.0178
25745NA      NA78615   3.248   4.138   5.680 -0.5782 -0.0240 -0.4837
25746NA      NA78616   5.923   4.532   2.770  0.0615 -0.2361 -0.2698
25747NA      NA78617   4.993   5.365   7.801 -0.2768  0.1929  0.6024
25748NA      NA78618   2.251   0.526   0.564  0.3216  0.0743  0.3230
25749NA      NA78619   1.206   1.710  11.829  0.5834 -0.1380  0.5188
25750NA      NA78620   1.209   5.583   2.569  0.0274 -0.0073  0.7746
25751NA      NA78621   2.563   2.602   9.812 -0.2097 -0.2159  0.5912
25752NA      NA78622   2.813   3.990   0.730 -0.0463  0.3003 -0.0951
25753NA      NA78623   4.424   3.803   9.109 -0.3027 -0.4189  0.2564
25754NA      NA78624   1.108   5.410   4.889  0.5778  0.1952  0.4270
25755NA      NA78625   3.179   6.557   6.425  0.4929  0.5134  0.2042
25756NA      NA78626   2.319   1.932   7.343  0.9677  0.2323 -0.2527
25757NA      NA78627   5.010   3.818   7.902  0.4989 -0.5311 -0.2762
25758NA      NA78628   7.091   6.236   4.907  0.3348 -0.3227 -0.1742
25759NA      NA78629   2.062   6.101  10.785  0.3929  0.2429 -0.3556
25760NA      NA78630   3.366   3.154   5.611 -0.1856 -0.1987 -0.0951
25761NA      NA78631   6.229   7.927  11.588  0.5398 -0.0797  0.5590
25762NA      NA78632   3.405   3.696   0.458 -0.3889 -0.2434 -0.6674
25763NA      NA78633   6.779   5.737   1.927 -0.3923 -0.1642  0.0296
25764NA      NA78634   3.636   3.674   1.693  0.4605  0.2165 -0.0046
25765NA      NA78635   3.118   4.533   7.858 -0.2229 -0.1956  0.2089
25766NA      NA78636   2.849   5.665  10.629 -0.0098 -0.1489 -0.0166
25767NA      NA78637   7.930   0.998   0.289  0.1681  0.2150  0.3974
25768NA      NA78638   4.992   3.330  10.667  0.3668  0.0015 -0.0852
25769NA      NA78639   6.405   2.931   9.826 -0.3222  0.0871  0.0280
25770NA      NA78640   4.675   6.025   1.248 -0.0948  0.1636 -0.4571
25771NA      NA78641   5.819   3.924   0.252  0.0402 -0.1737 -0.0835
25772NA      NA78642   0.817   0.687  11.208  0.0676  0.1021 -0.0039
25773NA      NA78643   2.547   3.618  12.119  0.4322  0.0398 -0.1823
25774NA      NA78644   7.046   7.830  11.340  0.0456  0.3561 -0.4417
25775NA      NA78645   5.458   2.061   1.515  0.3795 -0.7890 -0.2301
25776NA      NA78646   6.649   7.628   1.240  0.1151 -0.3299 -0.2048
25777NA      NA78647   7.749   1.614   6.641 -0.5041 -0.0186 -0.1706
25778NA      NA78648   6.715   7.302   6.662 -0.0945 -0.4359  0.2928
25779NA      NA78649   2.700   4.845   9.052  0.0371  0.1494  0.0633
25780NA      NA78650   3.520   6.084   4.388 -0.4041  0.0103  0.4459
25781NA      NA78651   7.374   5.507   8.409 -0.0668 -0.0366 -0.3650
25782NA      NA78652   3.233   3.907   9.621  0.0751 -0.3073 -0.0761
25783NA      NA78653   6.957   1.144   3.745 -0.3585  0.1484  0.0358
25784NA      NA78654   2.684   7.702   4.947 -0.3116 -0.1047  0.4111
25785NA      NA78655   2.070   5.187   4.925  0.1618 -0.3281  0.2416
25786NA      NA78656   2.234   3.895   0.655  0.7391 -0.4616  0.3881
25787NA      NA78657   5.756   6.940   0.489 -0.0060  0.1420 -0.4657
25788NA      NA78658   1.797   2.976   4.770  0.4046 -0.0161  0.2783
25789NA      NA78659   1.770   4.885   2.852 -0.4348  0.1824  0.2734
25790NA      NA78660   5.729   2.987   5.071  0.0782  0.1893  0.4146
25791NA      NA78661   4.728   2.573  10.570  0.2058 -0.0504 -1.0291
25792NA      NA78662   7.087   1.305   8.705  0.0177  0.2452 -0.2149
25793NA      NA78663   7.748   6.190   3.657 -0.7129  0.1313 -0.5180
25794NA      NA78664   3.996   1.131   1.852 -0.0671 -0.2609 -0.0679
25795NA      NA78665   1.556   7.707   2.560 -0.3293  0.3976 -0.3269
25796NA      NA78666   3.604   0.247   7.494 -0.2590 -0.0388  0.4896
25797NA      NA78667   4.025   3.845   0.339  0.0288  0.4549 -0.0061
25798NA      NA78668   4.732   6.476   2.402 -0.1582 -0.1138  0.0196
25799NA      NA78669   0.312   5.997   6.108  0.2232  0.0165 -0.0654
25800NA      NA78670   6.946   0.025   4.239  0.1878  0.0402  0.3350
25801NA      NA78671   0.295   4.053   3.832 -0.1515 -0.4388 -0.8152
25802NA      NA78672   6.741   2.857   5.570  0.2009  0.4827 -0.0335
25803NA      NA78673   0.309   4.230   6.666 -0.6913 -0.1908  0.1034
25804NA      NA78674   5.408   4.625   9.045 -0.1673  0.1729 -0.4254
25805NA      NA78675   0.213   6.030   8.728 -0.0998 -0.4835 -0.0101
25806NA      NA78676   3.326   0.734   7.051  0.0552  0.4398  0.9301
25807NA      NA78677   3.672   0.903   6.349 -0.3245 -0.1413 -0.1185
25808NA      NA78678   6.268   3.987   2.420  0.1726 -0.4320 -0.1020
25809NA      NA78679   4.884   2.137  11.743 -0.2234 -0.4461  0.1731
25810NA      NA78680   2.233   3.287  10.144 -0.0577 -0.3110  0.2785
25811NA      NA78681   5.219   4.653   6.804 -0.4033  0.3946  0.0572
25812NA      NA78682   1.849   7.161   9.550 -0.4132  0.0287 -0.0287
25813NA      NA78683   7.281   1.452   9.412 -0.3910 -0.3563  0.0670
25814NA      NA78684   4.095   3.397   0.834 -0.3278  0.1672  0.2764
25815NA      NA78685   6.633   0.642   1.749 -0.2319 -0.2540  0.0472
25816NA      NA78686   5.409   1.380   6.082  0.2752  0.2576 -0.1148
25817NA      NA78687   4.947   3.194   7.165  0.7100  0.2241  0.2175
25818NA      NA78688   4.831   7.455  11.316  0.0210  0.0060 -0.2862
25819NA      NA78689   4.825   5.484   3.967 -0.5244 -0.1550  0.2999
25820NA      NA78690   7.952   4.571  10.154 -0.0244 -0.6652 -0.3544
25821NA      NA78691   1.289   0.874   1.977  0.2472 -0.0366  0.4908
25822NA      NA78692   2.102   0.740  11.700 -0.3558  0.0008 -0.3667
25823NA      NA78693   5.450   7.138   5.348  0.6539  0.3284  0.2562
25824NA      NA78694   0.614   0.585   5.660 -0.0787 -0.2621 -0.0896
25825NA      NA78695   7.326   1.608   7.663 -0.1697 -0.0979 -0.2472
25826NA      NA78696   4.808   3.848   3.964  0.4038 -0.2455  0.2675
25827NA      NA78697   0.529   4.839   9.517 -0.6147 -0.4248 -0.5927
25828NA      NA78698   5.143   4.509   9.639  0.0946  0.0572  0.3400
25829NA      NA78699   7.085   7.392   3.333  0.3470  0.3305  0.4494
25830NA      NA78700   7.489   5.026   0.726  0.2574 -0.0557  0.3309
25831NA      NA78701   1.730   6.553   1.546 -0.1945  0.0470 -0.3363
25832NA      NA78702   5.284   3.877  12.017  0.2540 -0.0700  0.2278
25833NA      NA78703   2.057   1.592   9.205  0.2087  0.1451 -0.2711
25834NA      NA78704   4.306   3.590  10.166  0.2270 -0.2636  0.1292
25835NA      NA78705   1.510   2.461  10.265 -0.2410 -0.5178 -0.2593
25836NA      NA78706   5.056   2.370   0.813 -0.5220  0.2090 -0.1279
25837NA      NA78707   1.307   4.648   9.998 -0.1289 -0.0694 -0.1052
25838NA      NA78708   7.037   1.790   8.004  0.1915  0.1284 -0.2514
25839NA      NA78709   5.956   3.357  11.878  0.1654  0.6145  0.2036
25840NA      NA78710   3.165   5.172   9.710 -0.2851 -0.0603 -0.3275
25841NA      NA78711   1.247   2.624   8.214 -0.4896 -0.3908  0.4197
25842NA      NA78712   2.552   6.120   4.524  0.1651  0.2363 -0.4979
25843NA      NA78713   2.113   1.046   2.330  0.3876 -0.0379  0.0884
25844NA      NA78714   4.504   1.292   8.117  0.3683  0.0123 -0.1838
25845NA      NA78715   5.639   6.028   5.762  0.2186  0.3659  0.0363
25846NA      NA78716   1.404   4.870   0.520  0.0546 -0.5584 -0.1738
25847NA      NA78717   1.588   1.165   4.352  0.3852 -0.2118  0.3541
25848NA      NA78718   7.031   1.565   4.454 -0.2638 -0.6352  0.1704
25849NA      NA78719   6.488   1.550  11.069 -0.4581 -0.5700  0.1222
25850NA      NA78720   1.999   0.210   9.779 -0.4589 -0.8492 -0.2884
25851NA      NA78721   4.464   3.966   5.756 -0.1238  0.6764 -0.1418
25852NA      NA78722   7.273   3.749   5.633 -0.8435 -0.1271  0.4250
25853NA      NA78723   1.508   7.053   8.844 -0.5855  0.4428 -0.1824
25854NA      NA78724   4.929   4.322   0.288  0.4519  0.1152  0.0017
25855NA      NA78725   0.992   0.110  11.170  0.0672  0.5963 -0.3584
25856NA      NA78726   4.059   3.791  10.632 -0.4416  0.2949 -0.0529
25857NA      NA78727   0.568   5.921   1.925  0.2633  0.2788  0.2113
25858NA      NA78728   4.041   2.672   7.096 -0.1845 -0.3368  0.0852
25859NA      NA78729   2.669   5.451  11.532  0.2482 -0.4086  0.2629
25860NA      NA78730   0.537   2.875   9.086  0.6006 -0.5190  0.0376
25861NA      NA78731   3.953   1.135  10.035  0.1029 -0.6027 -0.2452
25862NA      NA78732   3.801   0.672   5.154  0.5276  0.0257  0.1451
25863NA      NA78733   6.867   4.265   1.561  0.1987 -0.2335  0.0696
25864NA      NA78734   1.796   2.002  10.856  0.0383 -0.2060  0.5454
25865NA      NA78735   6.455   3.728   8.616  0.7077  0.2473  0.1527
25866NA      NA78736   1.829   1.528   0.964 -0.2168  0.0326 -0.1377
25867NA      NA78737   7.026   7.871   0.863  0.2873 -0.5064  0.1981
25868NA      NA78738   2.575   1.750   4.377 -0.0159  0.1871 -0.0088
25869NA      NA78739   3.584   3.202   2.583 -0.0353  0.5704  0.3006
25870NA      NA78740   5.108   1.038   2.016  0.3548  0.2305 -0.6672
25871NA      NA78741   3.560   2.490   9.422 -0.1544  0.3563 -0.0332
25872NA      NA78742   3.796   2.672   8.317  0.1172 -0.0953  0.2509
25873NA      NA78743   1.120   5.490   7.262 -0.0458 -0.2645 -0.2296
25874NA      NA78744   4.333   4.567   9.407 -0.3315 -0.9963 -0.4734
25875NA      NA78745   4.657   5.392   2.725 -0.4530  0.0505 -0.1433
25876NA      NA78746   3.557   2.141   3.127  0.0522 -0.3597 -0.2490
25877NA      NA78747   2.415   5.282   3.031  0.1343  0.3374  0.1805
25878NA      NA78748   6.383   1.471   0.813 -0.1679 -0.0171  0.3898
25879NA      NA78749   1.661   0.660  10.542 -0.0167 -0.7256 -0.7947
25880NA      NA78750   0.030   0.702  12.042  0.0530  0.1179  0.2353
25881NA      NA78751   4.751   3.316   3.249  0.3225  0.2567  0.0397
25882NA      NA78752   7.792   0.107   0.582  0.5046 -0.1360  0.1010
25883NA      NA78753   4.092   4.758  12.317  0.3024 -0.1475 -0.1223
25884CL      CL78754   7.179   1.461   3.389  0.2741  0.4191  0.2650
25885CL      CL78755   0.062   5.880   3.168  0.1779 -0.1936  0.2354
25886CL      CL78756   1.350   7.602   4.249  0.1570 -0.1864  0.2147
25887CL      CL78757   1.297   2.548   3.658 -0.1361 -0.2274  0.6082
25888CL      CL78758   7.509   1.419   8.071 -0.0662 -0.4289  0.3930
25889CL      CL78759   0.011   4.111  12.434 -0.0160  0.4760  0.0220
25890CL      CL78760   0.863   6.719   0.188 -0.4197  0.0326 -0.0228
25891CL      CL78761   4.083   0.994   7.005 -0.1237  0.0257  0.2167
25892CL      CL78762   7.486   2.448   6.099  0.2996 -0.2221 -0.0236
25893CL      CL78763   4.599   4.640  11.179 -0.1251  0.0134 -0.3525
25894CL      CL78764   2.625   7.307   4.217 -0.0731 -0.2249 -0.0102
25895CL      CL78765   5.909   4.332   8.123  0.1850 -0.2027 -0.5729
25896CL      CL78766   3.143   6.827   3.611  0.3363  0.3018 -0.2542
25897CL      CL78767   0.242   0.851  12.443  0.0898 -0.2554  0.2675
25898CL      CL78768   4.671   1.759   8.556  0.0276 -0.1736  0.0369
25899CL      CL78769   5.962   6.504   9.251 -0.1111 -0.0312  0.0112
25900CL      CL78770   7.741   7.571   0.671 -0.4162  0.1778 -0.0007
25901CL      CL78771   2.468   7.048  11.472 -0.1326  0.6015  0.2930
25902CL      CL78772   5.848   3.797   5.279  0.2881 -0.3103 -0.1271
25903CL      CL78773   0.766   1.145   8.101  0.0886  0.1271  0.0218
25904CL      CL78774   4.143   6.232   4.428 -0.5037 -0.1067  0.1134
25905CL      CL78775   2.822   7.465   5.354 -0.2316  0.0114  0.2846
25906CL      CL78776   7.654   3.416  11.089 -0.7121  0.2817  0.2795
25907CL      CL78777   5.618   3.307   4.169 -0.0955 -0.3951  0.2843
25908CL      CL78778   4.569   7.872  12.068  0.3327  0.1520  0.2549
25909CL      CL78779   5.051   7.826   8.334 -0.0751  0.1280 -0.0178
25910CL      CL78780   6.349   2.160  10.030 -0.0648 -0.1488  0.2656
25911CL      CL78781   4.299   1.366   2.369 -0.3254 -0.3164  0.0541
25912CL      CL78782   4.721   2.740   3.877 -0.1669 -0.1959  0.2170
25913CL      CL78783   7.269   5.958   1.810  0.0297  0.0485  0.1120
25914CL      CL78784   6.156   5.377   0.764 -0.1889  0.1619 -0.1622
25915CL      CL78785   6.005   3.982   2.848  0.3692 -0.2767  0.4521
25916CL      CL78786   4.338   1.181   9.259  0.0767 -0.0512 -0.2264
25917CL      CL78787   5.983   4.421   1.397  0.4150  0.2629  0.4122
25918CL      CL78788   6.233   4.592  10.321 -0.0268 -0.2060 -0.6283
25919CL      CL78789   6.727   0.942   4.900  0.1716 -0.0505  0.0197
25920CL      CL78790   3.952   1.810   2.143  0.0045 -0.0059  0.4920
25921CL      CL78791   3.292   0.948   6.564 -0.1476  0.7662  0.1878
25922CL      CL78792   1.564   1.309   1.871 -0.0959 -0.2734 -0.0251
25923CL      CL78793   3.849   1.205  11.001 -0.1085  0.2425  0.0103
25924CL      CL78794   5.228   7.391   5.692  0.0246 -0.0772  0.0508
25925CL      CL78795   1.169   3.843   2.975 -0.1485  0.2965  0.1539
25926CL      CL78796   0.872   0.697  10.560 -0.1188 -0.2022 -0.0693
25927CL      CL78797   3.105   0.750   7.549  0.3231  0.0525  0.8352
25928CL      CL78798   7.533   1.350   8.907  0.3133  0.3396 -0.3042
25929CL      CL78799   1.124   2.219  10.302 -0.4406 -0.1688 -0.1066
25930CL      CL78800   2.616   1.379   4.622  0.0149  0.1203  0.0932
25931CL      CL78801   0.056   2.703   7.511 -0.2224 -0.0157 -0.1235
25932CL      CL78802   4.933   6.585   0.325  0.4292 -0.1410 -0.3513
25933CL      CL78803   0.585   5.349   3.480  0.1000 -0.2561  0.0274
25934CL      CL78804   7.847   4.049   8.459 -0.2718 -0.2626  0.2386
25935CL      CL78805   6.619   0.659   7.959  0.0512  0.0427  0.1484
25936CL      CL78806   2.277   3.309   1.107  0.1365  0.1210 -0.1818
25937CL      CL78807   2.954   0.331   1.361  0.4527  0.2817 -0.1533
25938CL      CL78808   3.114   6.002   4.699 -0.0213 -0.3976 -0.5763
25939CL      CL78809   0.772   3.253  10.995  0.3773  0.0639 -0.0974
25940CL      CL78810   7.494   0.323   4.759  0.1075 -0.4253  0.3597
25941CL      CL78811   0.356   0.312  11.882 -0.0442  0.1040  0.2488
25942CL      CL78812   3.606   3.406   5.900  0.0127 -0.1240  0.2175
25943CL      CL78813   2.227   1.550  11.168  0.3016  0.1181 -0.0573
25944CL      CL78814   4.056   4.789   6.906  0.1179  0.0878  0.2617
25945CL      CL78815   7.510   0.701  12.143  0.0486  0.3204  0.2486
25946CL      CL78816   0.539   3.974   4.344  0.1885  0.5069  0.2763
25947CL      CL78817   6.727   7.631   5.125  0.0064  0.3181 -0.4750
25948CL      CL78818   3.661   0.710   4.092 -0.2594  0.0907  0.1482
25949CL      CL78819   6.003   3.219   9.731 -0.3602  0.3375  0.5454
25950CL      CL78820   2.551   5.853  10.876  0.0382  0.2777 -0.3566
25951CL      CL78821   5.098   1.582   7.245 -0.4817  0.6754 -0.1100
25952CL      CL78822   7.337   6.701  11.687 -0.4630  0.3439 -0.2245
25953CL      CL78823   0.782   1.062   1.735 -0.1109  0.1781 -0.3439
25954CL      CL78824   0.102   4.987   9.540  0.1211  0.0027  0.2260
25955CL      CL78825   5.108   5.260   5.162  0.0692 -0.2557 -0.2305
25956CL      CL78826   2.191   4.426   5.692  0.1408  0.5703  0.0707
25957CL      CL78827   7.663   5.770  12.321  0.1602  0.1258 -0.0088
25958CL      CL78828   2.544   5.133   5.079 -0.3365  0.5716  0.4001
25959CL      CL78829   0.914   2.571   7.398 -0.1099  0.2659  0.1455
25960CL      CL78830   7.351   5.289   3.177 -0.0567 -0.0760  0.2186
25961CL      CL78831   2.748   5.051   0.433  0.0820 -0.2079  0.0033
25962CL      CL78832   6.022   7.259  12.222  0.2971 -0.1911  0.0280
25963CL      CL78833   2.059   2.142   4.719  0.0566  0.3159 -0.4227
25964CL      CL78834   1.312   6.993   8.355  0.2187 -0.3322 -0.0584
25965CL      CL78835   6.075   1.285   2.627 -0.1433 -0.0938  0.2274
25966CL      CL78836   7.829   2.875   4.160 -0.3480  0.3660  0.2705
25967CL      CL78837   3.562   5.649   7.715 -0.2794 -0.2114 -0.1804
25968CL      CL78838   4.486   5.802   4.099  0.0249 -0.4006 -0.4209
25969CL      CL78839   3.921   7.779   5.441 -0.2296 -0.1316  0.1218
25970CL      CL78840   4.645   1.883   1.477  0.2284  0.4126  0.1326
25971CL      CL78841   2.561   1.142   1.250  0.1329 -0.4338 -0.3164
25972CL      CL78842   3.611   5.476   1.941  0.7791  0.3712 -0.3874
25973CL      CL78843   6.907   0.753  12.186 -0.2022 -0.0287 -0.2985
25974CL      CL78844   4.960   1.232  10.950  0.0201  0.2237 -0.2987
25975CL      CL78845   6.882   3.466   7.765 -0.2379  0.3598 -0.0708
25976CL      CL78846   7.381   5.833   7.218  0.4747  0.3887 -0.3486
25977CL      CL78847   3.867   5.761   0.374  0.1612  0.3676  0.2514
25978CL      CL78848   1.855   7.447  10.369  0.1862 -0.0348  0.2767
25979CL      CL78849   5.674   7.249   2.716 -0.3224  0.4355  0.1164
25980CL      CL78850   1.818   5.740   2.994  0.0490  0.0780 -0.1070
25981CL      CL78851   7.014   6.245   4.404 -0.0691 -0.0237  0.2919
25982CL      CL78852   7.808   5.282   1.337 -0.1482 -0.0039  0.2527
25983CL      CL78853   6.580   2.718   9.402 -0.1267  0.3359  0.1708
25984CL      CL78854   1.444   6.843   9.903  0.0502 -0.0819 -0.2361
25985CL      CL78855   0.978   4.302   3.999  0.1934  0.3605  0.0270
25986CL      CL78856   1.293   1.353   6.579 -0.0200  0.5684 -0.1804
25987CL      CL78857   1.221   7.969   5.143  0.2856  0.0483 -0.1018
25988CL      CL78858   6.941   2.531   7.904  0.2296 -0.1171 -0.2030
25989CL      CL78859   1.249   1.042   8.930  0.0549 -0.3189  0.4785
25990CL      CL78860   5.623   0.977   8.162  0.0983  0.2792 -0.1339
25991CL      CL78861   6.131   3.455   5.553 -0.2403 -0.2106 -0.0331
25992CL      CL78862   4.853   2.269   3.791  0.1018 -0.3610 -0.0872
25993CL      CL78863   6.067   6.282   5.809  0.3091  0.0917  0.1842
25994CL      CL78864   1.467   5.053   8.239 -0.2414 -0.0827  0.0086
25995CL      CL78865   0.171   3.779  11.416  0.3681  0.2137 -0.0515
25996CL      CL78866   1.711   6.416   7.165 -0.2641  0.2340  0.1403
25997CL      CL78867   7.249   5.421   8.666  0.1216  0.3627 -0.0876
25998CL      CL78868   1.120   7.452   2.282  0.2229 -0.5035 -0.5460
25999CL      CL78869   1.095   1.457   1.330  0.0939  0.0408  0.0035
26000CL      CL78870   7.538   3.660   2.359  0.0002  0.6863 -0.3522
26001CL      CL78871   2.746   2.003   9.321  0.4884 -0.2048 -0.1169
26002CL      CL78872   7.181   2.180   4.178 -0.1238 -0.2803  0.0523
26003CL      CL78873   7.657   2.171  12.034 -0.2619 -0.3023  0.2922
26004CL      CL78874   0.140   5.597   8.746 -0.1204  0.1197 -0.1126
   7.96881   7.96881  12.45127
